 vasp.5.4.1 24Jun15 (build May 02 2016 14:41:14) complex                        
  
 executed on           IFC91_ompi date 2023.05.11  23:49:42
 running on   16 total cores
 distrk:  each k-point on   16 cores,    1 groups
 distr:  one band on NCORES_PER_BAND=   1 cores,   16 groups


--------------------------------------------------------------------------------------------------------


 INCAR:
 POTCAR:   PAW_PBE Si 05Jan2001                   

 ----------------------------------------------------------------------------- 
|                                                                             |
|           W    W    AA    RRRRR   N    N  II  N    N   GGGG   !!!           |
|           W    W   A  A   R    R  NN   N  II  NN   N  G    G  !!!           |
|           W    W  A    A  R    R  N N  N  II  N N  N  G       !!!           |
|           W WW W  AAAAAA  RRRRR   N  N N  II  N  N N  G  GGG   !            |
|           WW  WW  A    A  R   R   N   NN  II  N   NN  G    G                |
|           W    W  A    A  R    R  N    N  II  N    N   GGGG   !!!           |
|                                                                             |
|      For optimal performance we recommend to set                            |
|        NCORE= 4 - approx SQRT( number of cores)                             |
|      NCORE specifies how many cores store one orbital (NPAR=cpu/NCORE).     |
|      This setting can  greatly improve the performance of VASP for DFT.     |
|      The default, NPAR=number of cores might be grossly inefficient         |
|      on modern multi-core architectures or massively parallel machines.     |
|      Do your own testing !!!!                                               |
|      Unfortunately you need to use the default for GW and RPA calculations. |
|      (for HF NCORE is supported but not extensively tested yet)             |
|                                                                             |
 ----------------------------------------------------------------------------- 

 POTCAR:   PAW_PBE Si 05Jan2001                   
   VRHFIN =Si: s2p2                                                             
   LEXCH  = PE                                                                  
   EATOM  =   103.0669 eV,    7.5752 Ry                                         
                                                                                
   TITEL  = PAW_PBE Si 05Jan2001                                                
   LULTRA =        F    use ultrasoft PP ?                                      
   IUNSCR =        1    unscreen: 0-lin 1-nonlin 2-no                           
   RPACOR =    1.500    partial core radius                                     
   POMASS =   28.085; ZVAL   =    4.000    mass and valenz                      
   RCORE  =    1.900    outmost cutoff radius                                   
   RWIGS  =    2.480; RWIGS  =    1.312    wigner-seitz radius (au A)           
   ENMAX  =  245.345; ENMIN  =  184.009 eV                                      
   ICORE  =        2    local potential                                         
   LCOR   =        T    correct aug charges                                     
   LPAW   =        T    paw PP                                                  
   EAUG   =  322.069                                                            
   DEXC   =    -.007                                                            
   RMAX   =    2.944    core radius for proj-oper                               
   RAUG   =    1.300    factor for augmentation sphere                          
   RDEP   =    1.993    radius for radial grids                                 
   QCUT   =   -4.246; QGAM   =    8.493    optimization parameters              
                                                                                
   Description                                                                  
     l     E      TYP  RCUT    TYP  RCUT                                        
     0   .000     23  1.900                                                     
     0   .000     23  1.900                                                     
     1   .000     23  1.900                                                     
     1   .000     23  1.900                                                     
     2   .000      7  1.900                                                     
  local pseudopotential read in
  partial core-charges read in
  atomic valenz-charges read in
  non local Contribution for L=           0  read in
    real space projection operators read in
  non local Contribution for L=           0  read in
    real space projection operators read in
  non local Contribution for L=           1  read in
    real space projection operators read in
  non local Contribution for L=           1  read in
    real space projection operators read in
    PAW grid and wavefunctions read in
 
   number of l-projection  operators is LMAX  =           4
   number of lm-projection operators is LMMAX =           8
 
 PAW_PBE Si 05Jan2001                   :
 energy of atom  1       EATOM= -103.0669
 kinetic energy error for atom=    0.0006 (will be added to EATOM!!)
 
 
 POSCAR: Real silicon (diamond-like)             
  positions in direct lattice
  No initial velocities read in
 exchange correlation table for  LEXCH =        8
   RHO(1)=    0.500       N(1)  =     2000
   RHO(2)=  100.500       N(2)  =     4000
 


--------------------------------------------------------------------------------------------------------


 ion  position               nearest neighbor table
   1  0.875  0.875  0.875-   2 2.38   2 2.38   2 2.38   2 2.38
   2  0.125  0.125  0.125-   1 2.38   1 2.38   1 2.38   1 2.38
 
  LATTYP: Found a face centered cubic cell.
 ALAT       =     5.5000000000
  
  Lattice vectors:
  
 A1 = (   0.0000000000,   2.7500000000,   2.7500000000)
 A2 = (   2.7500000000,   0.0000000000,   2.7500000000)
 A3 = (   2.7500000000,   2.7500000000,   0.0000000000)


Analysis of symmetry for initial positions (statically):
=====================================================================
 Subroutine PRICEL returns:
 Original cell was already a primitive cell.
 

 Routine SETGRP: Setting up the symmetry group for a 
 face centered cubic supercell.


 Subroutine GETGRP returns: Found 48 space group operations
 (whereof 12 operations were pure point group operations)
 out of a pool of 48 trial point group operations.


The static configuration has the point symmetry D_3d.
 The point group associated with its full space group is O_h .


Analysis of symmetry for dynamics (positions and initial velocities):
=====================================================================
 Subroutine PRICEL returns:
 Original cell was already a primitive cell.
 

 Routine SETGRP: Setting up the symmetry group for a 
 face centered cubic supercell.


 Subroutine GETGRP returns: Found 48 space group operations
 (whereof 12 operations were pure point group operations)
 out of a pool of 48 trial point group operations.


The dynamic configuration has the point symmetry D_3d.
 The point group associated with its full space group is O_h .
 
 
 KPOINTS: K-points                                

Automatic generation of k-mesh.
Space group operators:
 irot       det(A)        alpha          n_x          n_y          n_z        tau_x        tau_y        tau_z
    1     1.000000     0.000000     1.000000     0.000000     0.000000     0.000000     0.000000     0.000000
    2    -1.000000     0.000000     1.000000     0.000000     0.000000     0.000000     0.000000     0.000000
    3     1.000000   120.000000    -0.577350    -0.577350    -0.577350     0.000000     0.000000     0.000000
    4    -1.000000   120.000000    -0.577350    -0.577350    -0.577350     0.000000     0.000000     0.000000
    5     1.000000   120.000000     0.577350     0.577350     0.577350     0.000000     0.000000     0.000000
    6    -1.000000   120.000000     0.577350     0.577350     0.577350     0.000000     0.000000     0.000000
    7     1.000000   180.000000     0.000000    -0.707107     0.707107     0.000000     0.000000     0.000000
    8    -1.000000   180.000000     0.000000    -0.707107     0.707107     0.000000     0.000000     0.000000
    9     1.000000   180.000000     0.707107    -0.707107     0.000000     0.000000     0.000000     0.000000
   10    -1.000000   180.000000     0.707107    -0.707107     0.000000     0.000000     0.000000     0.000000
   11     1.000000   180.000000     0.707107     0.000000    -0.707107     0.000000     0.000000     0.000000
   12    -1.000000   180.000000     0.707107     0.000000    -0.707107     0.000000     0.000000     0.000000
   13     1.000000    90.000000     0.000000     0.000000    -1.000000     0.500000     0.000000     0.000000
   14    -1.000000    90.000000     0.000000     0.000000    -1.000000     0.500000     0.000000     0.000000
   15     1.000000   180.000000     0.000000     0.707107     0.707107     0.500000     0.000000     0.000000
   16    -1.000000   180.000000     0.000000     0.707107     0.707107     0.500000     0.000000     0.000000
   17     1.000000    90.000000     0.000000     1.000000     0.000000     0.500000     0.000000     0.000000
   18    -1.000000    90.000000     0.000000     1.000000     0.000000     0.500000     0.000000     0.000000
   19     1.000000   180.000000     0.000000     0.000000     1.000000     0.000000     0.000000     0.500000
   20    -1.000000   180.000000     0.000000     0.000000     1.000000     0.000000     0.000000     0.500000
   21     1.000000   120.000000    -0.577350     0.577350     0.577350     0.000000     0.000000     0.500000
   22    -1.000000   120.000000    -0.577350     0.577350     0.577350     0.000000     0.000000     0.500000
   23     1.000000   120.000000    -0.577350     0.577350    -0.577350     0.000000     0.000000     0.500000
   24    -1.000000   120.000000    -0.577350     0.577350    -0.577350     0.000000     0.000000     0.500000
   25     1.000000    90.000000     0.000000     0.000000     1.000000     0.000000     0.500000     0.000000
   26    -1.000000    90.000000     0.000000     0.000000     1.000000     0.000000     0.500000     0.000000
   27     1.000000    90.000000    -1.000000     0.000000     0.000000     0.000000     0.500000     0.000000
   28    -1.000000    90.000000    -1.000000     0.000000     0.000000     0.000000     0.500000     0.000000
   29     1.000000   180.000000     0.707107     0.000000     0.707107     0.000000     0.500000     0.000000
   30    -1.000000   180.000000     0.707107     0.000000     0.707107     0.000000     0.500000     0.000000
   31     1.000000   120.000000     0.577350    -0.577350     0.577350     0.500000     0.000000     0.000000
   32    -1.000000   120.000000     0.577350    -0.577350     0.577350     0.500000     0.000000     0.000000
   33     1.000000   120.000000    -0.577350    -0.577350     0.577350     0.500000     0.000000     0.000000
   34    -1.000000   120.000000    -0.577350    -0.577350     0.577350     0.500000     0.000000     0.000000
   35     1.000000   180.000000     1.000000     0.000000     0.000000     0.500000     0.000000     0.000000
   36    -1.000000   180.000000     1.000000     0.000000     0.000000     0.500000     0.000000     0.000000
   37     1.000000    90.000000     0.000000    -1.000000     0.000000     0.000000     0.000000     0.500000
   38    -1.000000    90.000000     0.000000    -1.000000     0.000000     0.000000     0.000000     0.500000
   39     1.000000   180.000000     0.707107     0.707107     0.000000     0.000000     0.000000     0.500000
   40    -1.000000   180.000000     0.707107     0.707107     0.000000     0.000000     0.000000     0.500000
   41     1.000000    90.000000     1.000000     0.000000     0.000000     0.000000     0.000000     0.500000
   42    -1.000000    90.000000     1.000000     0.000000     0.000000     0.000000     0.000000     0.500000
   43     1.000000   120.000000     0.577350    -0.577350    -0.577350     0.000000     0.500000     0.000000
   44    -1.000000   120.000000     0.577350    -0.577350    -0.577350     0.000000     0.500000     0.000000
   45     1.000000   180.000000     0.000000     1.000000     0.000000     0.000000     0.500000     0.000000
   46    -1.000000   180.000000     0.000000     1.000000     0.000000     0.000000     0.500000     0.000000
   47     1.000000   120.000000     0.577350     0.577350    -0.577350     0.000000     0.500000     0.000000
   48    -1.000000   120.000000     0.577350     0.577350    -0.577350     0.000000     0.500000     0.000000
 
 Subroutine IBZKPT returns following result:
 ===========================================
 
 Found    120 irreducible k-points:
 
 Following reciprocal coordinates:
            Coordinates               Weight
  0.000000  0.000000  0.000000      1.000000
  0.066667  0.000000  0.000000      8.000000
  0.133333  0.000000  0.000000      8.000000
  0.200000  0.000000  0.000000      8.000000
  0.266667  0.000000  0.000000      8.000000
  0.333333  0.000000  0.000000      8.000000
  0.400000  0.000000  0.000000      8.000000
  0.466667  0.000000  0.000000      8.000000
  0.066667  0.066667  0.000000      6.000000
  0.133333  0.066667  0.000000     24.000000
  0.200000  0.066667  0.000000     24.000000
  0.266667  0.066667  0.000000     24.000000
  0.333333  0.066667  0.000000     24.000000
  0.400000  0.066667  0.000000     24.000000
  0.466667  0.066667  0.000000     24.000000
 -0.466667  0.066667  0.000000     24.000000
 -0.400000  0.066667  0.000000     24.000000
 -0.333333  0.066667  0.000000     24.000000
 -0.266667  0.066667  0.000000     24.000000
 -0.200000  0.066667  0.000000     24.000000
 -0.133333  0.066667  0.000000     24.000000
 -0.066667  0.066667  0.000000     12.000000
  0.133333  0.133333  0.000000      6.000000
  0.200000  0.133333  0.000000     24.000000
  0.266667  0.133333  0.000000     24.000000
  0.333333  0.133333  0.000000     24.000000
  0.400000  0.133333  0.000000     24.000000
  0.466667  0.133333  0.000000     24.000000
 -0.466667  0.133333  0.000000     24.000000
 -0.400000  0.133333  0.000000     24.000000
 -0.333333  0.133333  0.000000     24.000000
 -0.266667  0.133333  0.000000     24.000000
 -0.200000  0.133333  0.000000     24.000000
 -0.133333  0.133333  0.000000     12.000000
  0.200000  0.200000  0.000000      6.000000
  0.266667  0.200000  0.000000     24.000000
  0.333333  0.200000  0.000000     24.000000
  0.400000  0.200000  0.000000     24.000000
  0.466667  0.200000  0.000000     24.000000
 -0.466667  0.200000  0.000000     24.000000
 -0.400000  0.200000  0.000000     24.000000
 -0.333333  0.200000  0.000000     24.000000
 -0.266667  0.200000  0.000000     24.000000
 -0.200000  0.200000  0.000000     12.000000
  0.266667  0.266667  0.000000      6.000000
  0.333333  0.266667  0.000000     24.000000
  0.400000  0.266667  0.000000     24.000000
  0.466667  0.266667  0.000000     24.000000
 -0.466667  0.266667  0.000000     24.000000
 -0.400000  0.266667  0.000000     24.000000
 -0.333333  0.266667  0.000000     24.000000
 -0.266667  0.266667  0.000000     12.000000
  0.333333  0.333333  0.000000      6.000000
  0.400000  0.333333  0.000000     24.000000
  0.466667  0.333333  0.000000     24.000000
 -0.466667  0.333333  0.000000     24.000000
 -0.400000  0.333333  0.000000     24.000000
 -0.333333  0.333333  0.000000     12.000000
  0.400000  0.400000  0.000000      6.000000
  0.466667  0.400000  0.000000     24.000000
 -0.466667  0.400000  0.000000     24.000000
 -0.400000  0.400000  0.000000     12.000000
  0.466667  0.466667  0.000000      6.000000
 -0.466667  0.466667  0.000000     12.000000
  0.200000  0.133333  0.066667     24.000000
  0.266667  0.133333  0.066667     48.000000
  0.333333  0.133333  0.066667     48.000000
  0.400000  0.133333  0.066667     48.000000
  0.466667  0.133333  0.066667     48.000000
 -0.466667  0.133333  0.066667     48.000000
  0.266667  0.200000  0.066667     24.000000
  0.333333  0.200000  0.066667     48.000000
  0.400000  0.200000  0.066667     48.000000
  0.466667  0.200000  0.066667     48.000000
 -0.466667  0.200000  0.066667     48.000000
 -0.400000  0.200000  0.066667     48.000000
 -0.333333  0.200000  0.066667     48.000000
 -0.266667  0.200000  0.066667     48.000000
 -0.200000  0.200000  0.066667     48.000000
 -0.133333  0.200000  0.066667     24.000000
  0.333333  0.266667  0.066667     24.000000
  0.400000  0.266667  0.066667     48.000000
  0.466667  0.266667  0.066667     48.000000
 -0.466667  0.266667  0.066667     48.000000
 -0.400000  0.266667  0.066667     48.000000
 -0.333333  0.266667  0.066667     48.000000
 -0.266667  0.266667  0.066667     48.000000
 -0.200000  0.266667  0.066667     24.000000
  0.400000  0.333333  0.066667     24.000000
  0.466667  0.333333  0.066667     48.000000
 -0.466667  0.333333  0.066667     48.000000
 -0.400000  0.333333  0.066667     48.000000
 -0.333333  0.333333  0.066667     48.000000
 -0.266667  0.333333  0.066667     24.000000
  0.466667  0.400000  0.066667     24.000000
 -0.466667  0.400000  0.066667     48.000000
 -0.400000  0.400000  0.066667     48.000000
 -0.333333  0.400000  0.066667     24.000000
 -0.466667  0.466667  0.066667     24.000000
 -0.400000  0.466667  0.066667     24.000000
  0.400000  0.266667  0.133333     24.000000
  0.466667  0.266667  0.133333     48.000000
 -0.466667  0.266667  0.133333     48.000000
 -0.400000  0.266667  0.133333     48.000000
  0.466667  0.333333  0.133333     24.000000
 -0.466667  0.333333  0.133333     48.000000
 -0.400000  0.333333  0.133333     48.000000
 -0.333333  0.333333  0.133333     48.000000
 -0.266667  0.333333  0.133333     48.000000
 -0.200000  0.333333  0.133333     24.000000
 -0.466667  0.400000  0.133333     24.000000
 -0.400000  0.400000  0.133333     48.000000
 -0.333333  0.400000  0.133333     48.000000
 -0.266667  0.400000  0.133333     24.000000
 -0.400000  0.466667  0.133333     24.000000
 -0.333333  0.466667  0.133333     24.000000
 -0.400000  0.400000  0.200000     24.000000
 -0.333333  0.400000  0.200000     48.000000
 -0.333333  0.466667  0.200000     24.000000
 -0.266667  0.466667  0.200000     24.000000
 
 Following cartesian coordinates:
            Coordinates               Weight
  0.000000  0.000000  0.000000      1.000000
 -0.066667  0.066667  0.066667      8.000000
 -0.133333  0.133333  0.133333      8.000000
 -0.200000  0.200000  0.200000      8.000000
 -0.266667  0.266667  0.266667      8.000000
 -0.333333  0.333333  0.333333      8.000000
 -0.400000  0.400000  0.400000      8.000000
 -0.466667  0.466667  0.466667      8.000000
  0.000000  0.000000  0.133333      6.000000
 -0.066667  0.066667  0.200000     24.000000
 -0.133333  0.133333  0.266667     24.000000
 -0.200000  0.200000  0.333333     24.000000
 -0.266667  0.266667  0.400000     24.000000
 -0.333333  0.333333  0.466667     24.000000
 -0.400000  0.400000  0.533333     24.000000
  0.533333 -0.533333 -0.400000     24.000000
  0.466667 -0.466667 -0.333333     24.000000
  0.400000 -0.400000 -0.266667     24.000000
  0.333333 -0.333333 -0.200000     24.000000
  0.266667 -0.266667 -0.133333     24.000000
  0.200000 -0.200000 -0.066667     24.000000
  0.133333 -0.133333  0.000000     12.000000
  0.000000  0.000000  0.266667      6.000000
 -0.066667  0.066667  0.333333     24.000000
 -0.133333  0.133333  0.400000     24.000000
 -0.200000  0.200000  0.466667     24.000000
 -0.266667  0.266667  0.533333     24.000000
 -0.333333  0.333333  0.600000     24.000000
  0.600000 -0.600000 -0.333333     24.000000
  0.533333 -0.533333 -0.266667     24.000000
  0.466667 -0.466667 -0.200000     24.000000
  0.400000 -0.400000 -0.133333     24.000000
  0.333333 -0.333333 -0.066667     24.000000
  0.266667 -0.266667 -0.000000     12.000000
  0.000000  0.000000  0.400000      6.000000
 -0.066667  0.066667  0.466667     24.000000
 -0.133333  0.133333  0.533333     24.000000
 -0.200000  0.200000  0.600000     24.000000
 -0.266667  0.266667  0.666667     24.000000
  0.666667 -0.666667 -0.266667     24.000000
  0.600000 -0.600000 -0.200000     24.000000
  0.533333 -0.533333 -0.133333     24.000000
  0.466667 -0.466667 -0.066667     24.000000
  0.400000 -0.400000  0.000000     12.000000
  0.000000  0.000000  0.533333      6.000000
 -0.066667  0.066667  0.600000     24.000000
 -0.133333  0.133333  0.666667     24.000000
 -0.200000  0.200000  0.733333     24.000000
  0.733333 -0.733333 -0.200000     24.000000
  0.666667 -0.666667 -0.133333     24.000000
  0.600000 -0.600000 -0.066667     24.000000
  0.533333 -0.533333  0.000000     12.000000
  0.000000  0.000000  0.666667      6.000000
 -0.066667  0.066667  0.733333     24.000000
 -0.133333  0.133333  0.800000     24.000000
  0.800000 -0.800000 -0.133333     24.000000
  0.733333 -0.733333 -0.066667     24.000000
  0.666667 -0.666667  0.000000     12.000000
  0.000000  0.000000  0.800000      6.000000
 -0.066667  0.066667  0.866667     24.000000
  0.866667 -0.866667 -0.066667     24.000000
  0.800000 -0.800000  0.000000     12.000000
  0.000000  0.000000  0.933333      6.000000
  0.933333 -0.933333  0.000000     12.000000
 -0.000000  0.133333  0.266667     24.000000
 -0.066667  0.200000  0.333333     48.000000
 -0.133333  0.266667  0.400000     48.000000
 -0.200000  0.333333  0.466667     48.000000
 -0.266667  0.400000  0.533333     48.000000
  0.666667 -0.533333 -0.400000     48.000000
 -0.000000  0.133333  0.400000     24.000000
 -0.066667  0.200000  0.466667     48.000000
 -0.133333  0.266667  0.533333     48.000000
 -0.200000  0.333333  0.600000     48.000000
  0.733333 -0.600000 -0.333333     48.000000
  0.666667 -0.533333 -0.266667     48.000000
  0.600000 -0.466667 -0.200000     48.000000
  0.533333 -0.400000 -0.133333     48.000000
  0.466667 -0.333333 -0.066667     48.000000
  0.400000 -0.266667  0.000000     24.000000
 -0.000000  0.133333  0.533333     24.000000
 -0.066667  0.200000  0.600000     48.000000
 -0.133333  0.266667  0.666667     48.000000
  0.800000 -0.666667 -0.266667     48.000000
  0.733333 -0.600000 -0.200000     48.000000
  0.666667 -0.533333 -0.133333     48.000000
  0.600000 -0.466667 -0.066667     48.000000
  0.533333 -0.400000  0.000000     24.000000
 -0.000000  0.133333  0.666667     24.000000
 -0.066667  0.200000  0.733333     48.000000
  0.866667 -0.733333 -0.200000     48.000000
  0.800000 -0.666667 -0.133333     48.000000
  0.733333 -0.600000 -0.066667     48.000000
  0.666667 -0.533333 -0.000000     24.000000
 -0.000000  0.133333  0.800000     24.000000
  0.933333 -0.800000 -0.133333     48.000000
  0.866667 -0.733333 -0.066667     48.000000
  0.800000 -0.666667  0.000000     24.000000
  1.000000 -0.866667 -0.066667     24.000000
  0.933333 -0.800000  0.000000     24.000000
 -0.000000  0.266667  0.533333     24.000000
 -0.066667  0.333333  0.600000     48.000000
  0.866667 -0.600000 -0.333333     48.000000
  0.800000 -0.533333 -0.266667     48.000000
  0.000000  0.266667  0.666667     24.000000
  0.933333 -0.666667 -0.266667     48.000000
  0.866667 -0.600000 -0.200000     48.000000
  0.800000 -0.533333 -0.133333     48.000000
  0.733333 -0.466667 -0.066667     48.000000
  0.666667 -0.400000 -0.000000     24.000000
  1.000000 -0.733333 -0.200000     24.000000
  0.933333 -0.666667 -0.133333     48.000000
  0.866667 -0.600000 -0.066667     48.000000
  0.800000 -0.533333 -0.000000     24.000000
  1.000000 -0.733333 -0.066667     24.000000
  0.933333 -0.666667 -0.000000     24.000000
  1.000000 -0.600000 -0.200000     24.000000
  0.933333 -0.533333 -0.133333     48.000000
  1.000000 -0.600000 -0.066667     24.000000
  0.933333 -0.533333 -0.000000     24.000000
 


--------------------------------------------------------------------------------------------------------




 Dimension of arrays:
   k-points           NKPTS =    120   k-points in BZ     NKDIM =    120   number of bands    NBANDS=     16
   number of dos      NEDOS =    301   number of ions     NIONS =      2
   non local maximal  LDIM  =      4   non local SUM 2l+1 LMDIM =      8
   total plane-waves  NPLWV =  13824
   max r-space proj   IRMAX =      1   max aug-charges    IRDMAX=  11311
   dimension x,y,z NGX =    24 NGY =   24 NGZ =   24
   dimension x,y,z NGXF=    48 NGYF=   48 NGZF=   48
   support grid    NGXF=    48 NGYF=   48 NGZF=   48
   ions per type =               2
 NGX,Y,Z   is equivalent  to a cutoff of  10.26, 10.26, 10.26 a.u.
 NGXF,Y,Z  is equivalent  to a cutoff of  20.52, 20.52, 20.52 a.u.


 I would recommend the setting:
   dimension x,y,z NGX =    21 NGY =   21 NGZ =   21
 SYSTEM =  Real silicon (diamond-like)             
 POSCAR =  Real silicon (diamond-like)             

 Startparameter for this run:
   NWRITE =      2    write-flag & timer
   PREC   = normal    normal or accurate (medium, high low for compatibility)
   ISTART =      0    job   : 0-new  1-cont  2-samecut
   ICHARG =      2    charge: 1-file 2-atom 10-const
   ISPIN  =      1    spin polarized calculation?
   LNONCOLLINEAR =      F non collinear calculations
   LSORBIT =      F    spin-orbit coupling
   INIWAV =      1    electr: 0-lowe 1-rand  2-diag
   LASPH  =      F    aspherical Exc in radial PAW
   METAGGA=      F    non-selfconsistent MetaGGA calc.

 Electronic Relaxation 1
   ENCUT  =  500.0 eV  36.75 Ry    6.06 a.u.   7.09  7.09  7.09*2*pi/ulx,y,z
   ENINI  =  500.0     initial cutoff
   ENAUG  =  322.1 eV  augmentation charge cutoff
   NELM   =    100;   NELMIN=  4; NELMDL= -5     # of ELM steps 
   EDIFF  = 0.1E-05   stopping-criterion for ELM
   LREAL  =      F    real-space projection
   NLSPLINE    = F    spline interpolate recip. space projectors
   LCOMPAT=      F    compatible to vasp.4.4
   GGA_COMPAT  = T    GGA compatible to vasp.4.4-vasp.4.6
   LMAXPAW     = -100 max onsite density
   LMAXMIX     =    2 max onsite mixed and CHGCAR
   VOSKOWN=      0    Vosko Wilk Nusair interpolation
   ROPT   =    0.00000
 Ionic relaxation
   EDIFFG = -.1E-03   stopping-criterion for IOM
   NSW    =     20    number of steps for IOM
   NBLOCK =      1;   KBLOCK =     20    inner block; outer block 
   IBRION =      2    ionic relax: 0-MD 1-quasi-New 2-CG
   NFREE  =      1    steps in history (QN), initial steepest desc. (CG)
   ISIF   =      3    stress and relaxation
   IWAVPR =     11    prediction:  0-non 1-charg 2-wave 3-comb
   ISYM   =      2    0-nonsym 1-usesym 2-fastsym
   LCORR  =      T    Harris-Foulkes like correction to forces

   POTIM  = 0.5000    time-step for ionic-motion
   TEIN   =    0.0    initial temperature
   TEBEG  =    0.0;   TEEND  =   0.0 temperature during run
   SMASS  =  -3.00    Nose mass-parameter (am)
   estimated Nose-frequenzy (Omega)   =  0.10E-29 period in steps =****** mass=  -0.346E-27a.u.
   SCALEE = 1.0000    scale energy and forces
   NPACO  =    256;   APACO  = 16.0  distance and # of slots for P.C.
   PSTRESS=    0.0 pullay stress

  Mass of Ions in am
   POMASS =  28.09
  Ionic Valenz
   ZVAL   =   4.00
  Atomic Wigner-Seitz radii
   RWIGS  =  -1.00
  virtual crystal weights 
   VCA    =   1.00
   NELECT =       8.0000    total number of electrons
   NUPDOWN=      -1.0000    fix difference up-down

 DOS related values:
   EMIN   =  10.00;   EMAX   =-10.00  energy-range for DOS
   EFERMI =   0.00
   ISMEAR =     0;   SIGMA  =   0.10  broadening in eV -4-tet -1-fermi 0-gaus

 Electronic relaxation 2 (details)
   IALGO  =     38    algorithm
   LDIAG  =      T    sub-space diagonalisation (order eigenvalues)
   LSUBROT=      F    optimize rotation matrix (better conditioning)
   TURBO    =      0    0=normal 1=particle mesh
   IRESTART =      0    0=no restart 2=restart with 2 vectors
   NREBOOT  =      0    no. of reboots
   NMIN     =      0    reboot dimension
   EREF     =   0.00    reference energy to select bands
   IMIX   =      4    mixing-type and parameters
     AMIX     =   0.40;   BMIX     =  1.00
     AMIX_MAG =   1.60;   BMIX_MAG =  1.00
     AMIN     =   0.10
     WC   =   100.;   INIMIX=   1;  MIXPRE=   1;  MAXMIX= -45

 Intra band minimization:
   WEIMIN = 0.0010     energy-eigenvalue tresh-hold
   EBREAK =  0.16E-07  absolut break condition
   DEPER  =   0.30     relativ break condition  

   TIME   =   0.40     timestep for ELM

  volume/ion in A,a.u.               =      20.80       140.34
  Fermi-wavevector in a.u.,A,eV,Ry     =   0.944993  1.785779 12.150174  0.893013
  Thomas-Fermi vector in A             =   2.072852
 
 Write flags
   LWAVE  =      T    write WAVECAR
   LCHARG =      T    write CHGCAR
   LVTOT  =      F    write LOCPOT, total local potential
   LVHAR  =      F    write LOCPOT, Hartree potential only
   LELF   =      F    write electronic localiz. function (ELF)
   LORBIT =      0    0 simple, 1 ext, 2 COOP (PROOUT)


 Dipole corrections
   LMONO  =      F    monopole corrections only (constant potential shift)
   LDIPOL =      F    correct potential (dipole corrections)
   IDIPOL =      0    1-x, 2-y, 3-z, 4-all directions 
   EPSILON=  1.0000000 bulk dielectric constant

 Exchange correlation treatment:
   GGA     =    --    GGA type
   LEXCH   =     8    internal setting for exchange type
   VOSKOWN=      0    Vosko Wilk Nusair interpolation
   LHFCALC =     F    Hartree Fock is set to
   LHFONE  =     F    Hartree Fock one center treatment
   AEXX    =    0.0000 exact exchange contribution

 Linear response parameters
   LEPSILON=     F    determine dielectric tensor
   LRPA    =     F    only Hartree local field effects (RPA)
   LNABLA  =     F    use nabla operator in PAW spheres
   LVEL    =     F    velocity operator in full k-point grid
   LINTERFAST=   F  fast interpolation
   KINTER  =     0    interpolate to denser k-point grid
   CSHIFT  =0.1000    complex shift for real part using Kramers Kronig
   OMEGAMAX=  -1.0    maximum frequency
   DEG_THRESHOLD= 0.2000000E-02 threshold for treating states as degnerate
   RTIME   =    0.100 relaxation time in fs

 Orbital magnetization related:
   ORBITALMAG=     F  switch on orbital magnetization
   LCHIMAG   =     F  perturbation theory with respect to B field
   DQ        =  0.001000  dq finite difference perturbation B field



--------------------------------------------------------------------------------------------------------


 conjugate gradient relaxation of ions
 charge density and potential will be updated during run
 non-spin polarized calculation
 Variant of blocked Davidson
 Davidson routine will perform the subspace rotation
 perform sub-space diagonalisation
    after iterative eigenvector-optimisation
 modified Broyden-mixing scheme, WC =      100.0
 initial mixing is a Kerker type mixing with AMIX =  0.4000 and BMIX =      1.0000
 Hartree-type preconditioning will be used
 using additional bands           12
 reciprocal scheme for non local part
 use partial core corrections
 calculate Harris-corrections to forces 
   (improved forces if not selfconsistent)
 use gradient corrections 
 use of overlap-Matrix (Vanderbilt PP)
 Gauss-broadening in eV      SIGMA  =   0.10


--------------------------------------------------------------------------------------------------------


  energy-cutoff  :      500.00
  volume of cell :       41.59
      direct lattice vectors                 reciprocal lattice vectors
     0.000000000  2.750000000  2.750000000    -0.181818182  0.181818182  0.181818182
     2.750000000  0.000000000  2.750000000     0.181818182 -0.181818182  0.181818182
     2.750000000  2.750000000  0.000000000     0.181818182  0.181818182 -0.181818182

  length of vectors
     3.889087297  3.889087297  3.889087297     0.314918329  0.314918329  0.314918329


 
 k-points in units of 2pi/SCALE and weight: K-points                                
   0.00000000  0.00000000  0.00000000       0.000
  -0.06666667  0.06666667  0.06666667       0.002
  -0.13333333  0.13333333  0.13333333       0.002
  -0.20000000  0.20000000  0.20000000       0.002
  -0.26666667  0.26666667  0.26666667       0.002
  -0.33333333  0.33333333  0.33333333       0.002
  -0.40000000  0.40000000  0.40000000       0.002
  -0.46666667  0.46666667  0.46666667       0.002
   0.00000000  0.00000000  0.13333333       0.002
  -0.06666667  0.06666667  0.20000000       0.007
  -0.13333333  0.13333333  0.26666667       0.007
  -0.20000000  0.20000000  0.33333333       0.007
  -0.26666667  0.26666667  0.40000000       0.007
  -0.33333333  0.33333333  0.46666667       0.007
  -0.40000000  0.40000000  0.53333333       0.007
   0.53333333 -0.53333333 -0.40000000       0.007
   0.46666667 -0.46666667 -0.33333333       0.007
   0.40000000 -0.40000000 -0.26666667       0.007
   0.33333333 -0.33333333 -0.20000000       0.007
   0.26666667 -0.26666667 -0.13333333       0.007
   0.20000000 -0.20000000 -0.06666667       0.007
   0.13333333 -0.13333333  0.00000000       0.004
   0.00000000  0.00000000  0.26666667       0.002
  -0.06666667  0.06666667  0.33333333       0.007
  -0.13333333  0.13333333  0.40000000       0.007
  -0.20000000  0.20000000  0.46666667       0.007
  -0.26666667  0.26666667  0.53333333       0.007
  -0.33333333  0.33333333  0.60000000       0.007
   0.60000000 -0.60000000 -0.33333333       0.007
   0.53333333 -0.53333333 -0.26666667       0.007
   0.46666667 -0.46666667 -0.20000000       0.007
   0.40000000 -0.40000000 -0.13333333       0.007
   0.33333333 -0.33333333 -0.06666667       0.007
   0.26666667 -0.26666667 -0.00000000       0.004
   0.00000000  0.00000000  0.40000000       0.002
  -0.06666667  0.06666667  0.46666667       0.007
  -0.13333333  0.13333333  0.53333333       0.007
  -0.20000000  0.20000000  0.60000000       0.007
  -0.26666667  0.26666667  0.66666667       0.007
   0.66666667 -0.66666667 -0.26666667       0.007
   0.60000000 -0.60000000 -0.20000000       0.007
   0.53333333 -0.53333333 -0.13333333       0.007
   0.46666667 -0.46666667 -0.06666667       0.007
   0.40000000 -0.40000000  0.00000000       0.004
   0.00000000  0.00000000  0.53333333       0.002
  -0.06666667  0.06666667  0.60000000       0.007
  -0.13333333  0.13333333  0.66666667       0.007
  -0.20000000  0.20000000  0.73333333       0.007
   0.73333333 -0.73333333 -0.20000000       0.007
   0.66666667 -0.66666667 -0.13333333       0.007
   0.60000000 -0.60000000 -0.06666667       0.007
   0.53333333 -0.53333333  0.00000000       0.004
   0.00000000  0.00000000  0.66666667       0.002
  -0.06666667  0.06666667  0.73333333       0.007
  -0.13333333  0.13333333  0.80000000       0.007
   0.80000000 -0.80000000 -0.13333333       0.007
   0.73333333 -0.73333333 -0.06666667       0.007
   0.66666667 -0.66666667  0.00000000       0.004
   0.00000000  0.00000000  0.80000000       0.002
  -0.06666667  0.06666667  0.86666667       0.007
   0.86666667 -0.86666667 -0.06666667       0.007
   0.80000000 -0.80000000  0.00000000       0.004
   0.00000000  0.00000000  0.93333333       0.002
   0.93333333 -0.93333333  0.00000000       0.004
  -0.00000000  0.13333333  0.26666667       0.007
  -0.06666667  0.20000000  0.33333333       0.014
  -0.13333333  0.26666667  0.40000000       0.014
  -0.20000000  0.33333333  0.46666667       0.014
  -0.26666667  0.40000000  0.53333333       0.014
   0.66666667 -0.53333333 -0.40000000       0.014
  -0.00000000  0.13333333  0.40000000       0.007
  -0.06666667  0.20000000  0.46666667       0.014
  -0.13333333  0.26666667  0.53333333       0.014
  -0.20000000  0.33333333  0.60000000       0.014
   0.73333333 -0.60000000 -0.33333333       0.014
   0.66666667 -0.53333333 -0.26666667       0.014
   0.60000000 -0.46666667 -0.20000000       0.014
   0.53333333 -0.40000000 -0.13333333       0.014
   0.46666667 -0.33333333 -0.06666667       0.014
   0.40000000 -0.26666667  0.00000000       0.007
  -0.00000000  0.13333333  0.53333333       0.007
  -0.06666667  0.20000000  0.60000000       0.014
  -0.13333333  0.26666667  0.66666667       0.014
   0.80000000 -0.66666667 -0.26666667       0.014
   0.73333333 -0.60000000 -0.20000000       0.014
   0.66666667 -0.53333333 -0.13333333       0.014
   0.60000000 -0.46666667 -0.06666667       0.014
   0.53333333 -0.40000000  0.00000000       0.007
  -0.00000000  0.13333333  0.66666667       0.007
  -0.06666667  0.20000000  0.73333333       0.014
   0.86666667 -0.73333333 -0.20000000       0.014
   0.80000000 -0.66666667 -0.13333333       0.014
   0.73333333 -0.60000000 -0.06666667       0.014
   0.66666667 -0.53333333 -0.00000000       0.007
  -0.00000000  0.13333333  0.80000000       0.007
   0.93333333 -0.80000000 -0.13333333       0.014
   0.86666667 -0.73333333 -0.06666667       0.014
   0.80000000 -0.66666667  0.00000000       0.007
   1.00000000 -0.86666667 -0.06666667       0.007
   0.93333333 -0.80000000  0.00000000       0.007
  -0.00000000  0.26666667  0.53333333       0.007
  -0.06666667  0.33333333  0.60000000       0.014
   0.86666667 -0.60000000 -0.33333333       0.014
   0.80000000 -0.53333333 -0.26666667       0.014
   0.00000000  0.26666667  0.66666667       0.007
   0.93333333 -0.66666667 -0.26666667       0.014
   0.86666667 -0.60000000 -0.20000000       0.014
   0.80000000 -0.53333333 -0.13333333       0.014
   0.73333333 -0.46666667 -0.06666667       0.014
   0.66666667 -0.40000000 -0.00000000       0.007
   1.00000000 -0.73333333 -0.20000000       0.007
   0.93333333 -0.66666667 -0.13333333       0.014
   0.86666667 -0.60000000 -0.06666667       0.014
   0.80000000 -0.53333333 -0.00000000       0.007
   1.00000000 -0.73333333 -0.06666667       0.007
   0.93333333 -0.66666667 -0.00000000       0.007
   1.00000000 -0.60000000 -0.20000000       0.007
   0.93333333 -0.53333333 -0.13333333       0.014
   1.00000000 -0.60000000 -0.06666667       0.007
   0.93333333 -0.53333333 -0.00000000       0.007
 
 k-points in reciprocal lattice and weights: K-points                                
   0.00000000  0.00000000  0.00000000       0.000
   0.06666667  0.00000000  0.00000000       0.002
   0.13333333  0.00000000  0.00000000       0.002
   0.20000000  0.00000000  0.00000000       0.002
   0.26666667  0.00000000  0.00000000       0.002
   0.33333333  0.00000000  0.00000000       0.002
   0.40000000  0.00000000  0.00000000       0.002
   0.46666667  0.00000000  0.00000000       0.002
   0.06666667  0.06666667  0.00000000       0.002
   0.13333333  0.06666667  0.00000000       0.007
   0.20000000  0.06666667  0.00000000       0.007
   0.26666667  0.06666667  0.00000000       0.007
   0.33333333  0.06666667  0.00000000       0.007
   0.40000000  0.06666667  0.00000000       0.007
   0.46666667  0.06666667  0.00000000       0.007
  -0.46666667  0.06666667  0.00000000       0.007
  -0.40000000  0.06666667  0.00000000       0.007
  -0.33333333  0.06666667  0.00000000       0.007
  -0.26666667  0.06666667  0.00000000       0.007
  -0.20000000  0.06666667  0.00000000       0.007
  -0.13333333  0.06666667  0.00000000       0.007
  -0.06666667  0.06666667  0.00000000       0.004
   0.13333333  0.13333333  0.00000000       0.002
   0.20000000  0.13333333  0.00000000       0.007
   0.26666667  0.13333333  0.00000000       0.007
   0.33333333  0.13333333  0.00000000       0.007
   0.40000000  0.13333333  0.00000000       0.007
   0.46666667  0.13333333  0.00000000       0.007
  -0.46666667  0.13333333  0.00000000       0.007
  -0.40000000  0.13333333  0.00000000       0.007
  -0.33333333  0.13333333  0.00000000       0.007
  -0.26666667  0.13333333  0.00000000       0.007
  -0.20000000  0.13333333  0.00000000       0.007
  -0.13333333  0.13333333  0.00000000       0.004
   0.20000000  0.20000000  0.00000000       0.002
   0.26666667  0.20000000  0.00000000       0.007
   0.33333333  0.20000000  0.00000000       0.007
   0.40000000  0.20000000  0.00000000       0.007
   0.46666667  0.20000000  0.00000000       0.007
  -0.46666667  0.20000000  0.00000000       0.007
  -0.40000000  0.20000000  0.00000000       0.007
  -0.33333333  0.20000000  0.00000000       0.007
  -0.26666667  0.20000000  0.00000000       0.007
  -0.20000000  0.20000000  0.00000000       0.004
   0.26666667  0.26666667  0.00000000       0.002
   0.33333333  0.26666667  0.00000000       0.007
   0.40000000  0.26666667  0.00000000       0.007
   0.46666667  0.26666667  0.00000000       0.007
  -0.46666667  0.26666667  0.00000000       0.007
  -0.40000000  0.26666667  0.00000000       0.007
  -0.33333333  0.26666667  0.00000000       0.007
  -0.26666667  0.26666667  0.00000000       0.004
   0.33333333  0.33333333  0.00000000       0.002
   0.40000000  0.33333333  0.00000000       0.007
   0.46666667  0.33333333  0.00000000       0.007
  -0.46666667  0.33333333  0.00000000       0.007
  -0.40000000  0.33333333  0.00000000       0.007
  -0.33333333  0.33333333  0.00000000       0.004
   0.40000000  0.40000000  0.00000000       0.002
   0.46666667  0.40000000  0.00000000       0.007
  -0.46666667  0.40000000  0.00000000       0.007
  -0.40000000  0.40000000  0.00000000       0.004
   0.46666667  0.46666667  0.00000000       0.002
  -0.46666667  0.46666667  0.00000000       0.004
   0.20000000  0.13333333  0.06666667       0.007
   0.26666667  0.13333333  0.06666667       0.014
   0.33333333  0.13333333  0.06666667       0.014
   0.40000000  0.13333333  0.06666667       0.014
   0.46666667  0.13333333  0.06666667       0.014
  -0.46666667  0.13333333  0.06666667       0.014
   0.26666667  0.20000000  0.06666667       0.007
   0.33333333  0.20000000  0.06666667       0.014
   0.40000000  0.20000000  0.06666667       0.014
   0.46666667  0.20000000  0.06666667       0.014
  -0.46666667  0.20000000  0.06666667       0.014
  -0.40000000  0.20000000  0.06666667       0.014
  -0.33333333  0.20000000  0.06666667       0.014
  -0.26666667  0.20000000  0.06666667       0.014
  -0.20000000  0.20000000  0.06666667       0.014
  -0.13333333  0.20000000  0.06666667       0.007
   0.33333333  0.26666667  0.06666667       0.007
   0.40000000  0.26666667  0.06666667       0.014
   0.46666667  0.26666667  0.06666667       0.014
  -0.46666667  0.26666667  0.06666667       0.014
  -0.40000000  0.26666667  0.06666667       0.014
  -0.33333333  0.26666667  0.06666667       0.014
  -0.26666667  0.26666667  0.06666667       0.014
  -0.20000000  0.26666667  0.06666667       0.007
   0.40000000  0.33333333  0.06666667       0.007
   0.46666667  0.33333333  0.06666667       0.014
  -0.46666667  0.33333333  0.06666667       0.014
  -0.40000000  0.33333333  0.06666667       0.014
  -0.33333333  0.33333333  0.06666667       0.014
  -0.26666667  0.33333333  0.06666667       0.007
   0.46666667  0.40000000  0.06666667       0.007
  -0.46666667  0.40000000  0.06666667       0.014
  -0.40000000  0.40000000  0.06666667       0.014
  -0.33333333  0.40000000  0.06666667       0.007
  -0.46666667  0.46666667  0.06666667       0.007
  -0.40000000  0.46666667  0.06666667       0.007
   0.40000000  0.26666667  0.13333333       0.007
   0.46666667  0.26666667  0.13333333       0.014
  -0.46666667  0.26666667  0.13333333       0.014
  -0.40000000  0.26666667  0.13333333       0.014
   0.46666667  0.33333333  0.13333333       0.007
  -0.46666667  0.33333333  0.13333333       0.014
  -0.40000000  0.33333333  0.13333333       0.014
  -0.33333333  0.33333333  0.13333333       0.014
  -0.26666667  0.33333333  0.13333333       0.014
  -0.20000000  0.33333333  0.13333333       0.007
  -0.46666667  0.40000000  0.13333333       0.007
  -0.40000000  0.40000000  0.13333333       0.014
  -0.33333333  0.40000000  0.13333333       0.014
  -0.26666667  0.40000000  0.13333333       0.007
  -0.40000000  0.46666667  0.13333333       0.007
  -0.33333333  0.46666667  0.13333333       0.007
  -0.40000000  0.40000000  0.20000000       0.007
  -0.33333333  0.40000000  0.20000000       0.014
  -0.33333333  0.46666667  0.20000000       0.007
  -0.26666667  0.46666667  0.20000000       0.007
 
 position of ions in fractional coordinates (direct lattice) 
   0.87500000  0.87500000  0.87500000
   0.12500000  0.12500000  0.12500000
 
 position of ions in cartesian coordinates  (Angst):
   4.81250000  4.81250000  4.81250000
   0.68750000  0.68750000  0.68750000
 


--------------------------------------------------------------------------------------------------------


 k-point  1 :   0.0000 0.0000 0.0000  plane waves:    1067
 k-point  2 :   0.0667 0.0000 0.0000  plane waves:    1046
 k-point  3 :   0.1333 0.0000 0.0000  plane waves:    1034
 k-point  4 :   0.2000 0.0000 0.0000  plane waves:    1046
 k-point  5 :   0.2667 0.0000 0.0000  plane waves:    1059
 k-point  6 :   0.3333 0.0000 0.0000  plane waves:    1059
 k-point  7 :   0.4000 0.0000 0.0000  plane waves:    1056
 k-point  8 :   0.4667 0.0000 0.0000  plane waves:    1056
 k-point  9 :   0.0667 0.0667 0.0000  plane waves:    1042
 k-point 10 :   0.1333 0.0667 0.0000  plane waves:    1038
 k-point 11 :   0.2000 0.0667 0.0000  plane waves:    1036
 k-point 12 :   0.2667 0.0667 0.0000  plane waves:    1049
 k-point 13 :   0.3333 0.0667 0.0000  plane waves:    1057
 k-point 14 :   0.4000 0.0667 0.0000  plane waves:    1051
 k-point 15 :   0.4667 0.0667 0.0000  plane waves:    1049
 k-point 16 :  -0.4667 0.0667 0.0000  plane waves:    1059
 k-point 17 :  -0.4000 0.0667 0.0000  plane waves:    1053
 k-point 18 :  -0.3333 0.0667 0.0000  plane waves:    1058
 k-point 19 :  -0.2667 0.0667 0.0000  plane waves:    1059
 k-point 20 :  -0.2000 0.0667 0.0000  plane waves:    1053
 k-point 21 :  -0.1333 0.0667 0.0000  plane waves:    1041
 k-point 22 :  -0.0667 0.0667 0.0000  plane waves:    1031
 k-point 23 :   0.1333 0.1333 0.0000  plane waves:    1038
 k-point 24 :   0.2000 0.1333 0.0000  plane waves:    1040
 k-point 25 :   0.2667 0.1333 0.0000  plane waves:    1053
 k-point 26 :   0.3333 0.1333 0.0000  plane waves:    1053
 k-point 27 :   0.4000 0.1333 0.0000  plane waves:    1060
 k-point 28 :   0.4667 0.1333 0.0000  plane waves:    1055
 k-point 29 :  -0.4667 0.1333 0.0000  plane waves:    1059
 k-point 30 :  -0.4000 0.1333 0.0000  plane waves:    1056
 k-point 31 :  -0.3333 0.1333 0.0000  plane waves:    1057
 k-point 32 :  -0.2667 0.1333 0.0000  plane waves:    1054
 k-point 33 :  -0.2000 0.1333 0.0000  plane waves:    1058
 k-point 34 :  -0.1333 0.1333 0.0000  plane waves:    1049
 k-point 35 :   0.2000 0.2000 0.0000  plane waves:    1054
 k-point 36 :   0.2667 0.2000 0.0000  plane waves:    1055
 k-point 37 :   0.3333 0.2000 0.0000  plane waves:    1052
 k-point 38 :   0.4000 0.2000 0.0000  plane waves:    1046
 k-point 39 :   0.4667 0.2000 0.0000  plane waves:    1058
 k-point 40 :  -0.4667 0.2000 0.0000  plane waves:    1069
 k-point 41 :  -0.4000 0.2000 0.0000  plane waves:    1073
 k-point 42 :  -0.3333 0.2000 0.0000  plane waves:    1057
 k-point 43 :  -0.2667 0.2000 0.0000  plane waves:    1054
 k-point 44 :  -0.2000 0.2000 0.0000  plane waves:    1057
 k-point 45 :   0.2667 0.2667 0.0000  plane waves:    1054
 k-point 46 :   0.3333 0.2667 0.0000  plane waves:    1046
 k-point 47 :   0.4000 0.2667 0.0000  plane waves:    1050
 k-point 48 :   0.4667 0.2667 0.0000  plane waves:    1056
 k-point 49 :  -0.4667 0.2667 0.0000  plane waves:    1059
 k-point 50 :  -0.4000 0.2667 0.0000  plane waves:    1060
 k-point 51 :  -0.3333 0.2667 0.0000  plane waves:    1058
 k-point 52 :  -0.2667 0.2667 0.0000  plane waves:    1057
 k-point 53 :   0.3333 0.3333 0.0000  plane waves:    1046
 k-point 54 :   0.4000 0.3333 0.0000  plane waves:    1048
 k-point 55 :   0.4667 0.3333 0.0000  plane waves:    1052
 k-point 56 :  -0.4667 0.3333 0.0000  plane waves:    1057
 k-point 57 :  -0.4000 0.3333 0.0000  plane waves:    1058
 k-point 58 :  -0.3333 0.3333 0.0000  plane waves:    1063
 k-point 59 :   0.4000 0.4000 0.0000  plane waves:    1042
 k-point 60 :   0.4667 0.4000 0.0000  plane waves:    1063
 k-point 61 :  -0.4667 0.4000 0.0000  plane waves:    1051
 k-point 62 :  -0.4000 0.4000 0.0000  plane waves:    1059
 k-point 63 :   0.4667 0.4667 0.0000  plane waves:    1050
 k-point 64 :  -0.4667 0.4667 0.0000  plane waves:    1052
 k-point 65 :   0.2000 0.1333 0.0667  plane waves:    1040
 k-point 66 :   0.2667 0.1333 0.0667  plane waves:    1047
 k-point 67 :   0.3333 0.1333 0.0667  plane waves:    1055
 k-point 68 :   0.4000 0.1333 0.0667  plane waves:    1053
 k-point 69 :   0.4667 0.1333 0.0667  plane waves:    1055
 k-point 70 :  -0.4667 0.1333 0.0667  plane waves:    1061
 k-point 71 :   0.2667 0.2000 0.0667  plane waves:    1046
 k-point 72 :   0.3333 0.2000 0.0667  plane waves:    1053
 k-point 73 :   0.4000 0.2000 0.0667  plane waves:    1056
 k-point 74 :   0.4667 0.2000 0.0667  plane waves:    1057
 k-point 75 :  -0.4667 0.2000 0.0667  plane waves:    1059
 k-point 76 :  -0.4000 0.2000 0.0667  plane waves:    1058
 k-point 77 :  -0.3333 0.2000 0.0667  plane waves:    1059
 k-point 78 :  -0.2667 0.2000 0.0667  plane waves:    1060
 k-point 79 :  -0.2000 0.2000 0.0667  plane waves:    1054
 k-point 80 :  -0.1333 0.2000 0.0667  plane waves:    1053
 k-point 81 :   0.3333 0.2667 0.0667  plane waves:    1050
 k-point 82 :   0.4000 0.2667 0.0667  plane waves:    1049
 k-point 83 :   0.4667 0.2667 0.0667  plane waves:    1053
 k-point 84 :  -0.4667 0.2667 0.0667  plane waves:    1062
 k-point 85 :  -0.4000 0.2667 0.0667  plane waves:    1057
 k-point 86 :  -0.3333 0.2667 0.0667  plane waves:    1061
 k-point 87 :  -0.2667 0.2667 0.0667  plane waves:    1056
 k-point 88 :  -0.2000 0.2667 0.0667  plane waves:    1058
 k-point 89 :   0.4000 0.3333 0.0667  plane waves:    1052
 k-point 90 :   0.4667 0.3333 0.0667  plane waves:    1058
 k-point 91 :  -0.4667 0.3333 0.0667  plane waves:    1062
 k-point 92 :  -0.4000 0.3333 0.0667  plane waves:    1059
 k-point 93 :  -0.3333 0.3333 0.0667  plane waves:    1059
 k-point 94 :  -0.2667 0.3333 0.0667  plane waves:    1064
 k-point 95 :   0.4667 0.4000 0.0667  plane waves:    1055
 k-point 96 :  -0.4667 0.4000 0.0667  plane waves:    1059
 k-point 97 :  -0.4000 0.4000 0.0667  plane waves:    1064
 k-point 98 :  -0.3333 0.4000 0.0667  plane waves:    1061
 k-point 99 :  -0.4667 0.4667 0.0667  plane waves:    1060
 k-point ** :  -0.4000 0.4667 0.0667  plane waves:    1059
 k-point ** :   0.4000 0.2667 0.1333  plane waves:    1052
 k-point ** :   0.4667 0.2667 0.1333  plane waves:    1055
 k-point ** :  -0.4667 0.2667 0.1333  plane waves:    1063
 k-point ** :  -0.4000 0.2667 0.1333  plane waves:    1061
 k-point ** :   0.4667 0.3333 0.1333  plane waves:    1056
 k-point ** :  -0.4667 0.3333 0.1333  plane waves:    1054
 k-point ** :  -0.4000 0.3333 0.1333  plane waves:    1062
 k-point ** :  -0.3333 0.3333 0.1333  plane waves:    1063
 k-point ** :  -0.2667 0.3333 0.1333  plane waves:    1064
 k-point ** :  -0.2000 0.3333 0.1333  plane waves:    1052
 k-point ** :  -0.4667 0.4000 0.1333  plane waves:    1059
 k-point ** :  -0.4000 0.4000 0.1333  plane waves:    1059
 k-point ** :  -0.3333 0.4000 0.1333  plane waves:    1063
 k-point ** :  -0.2667 0.4000 0.1333  plane waves:    1063
 k-point ** :  -0.4000 0.4667 0.1333  plane waves:    1058
 k-point ** :  -0.3333 0.4667 0.1333  plane waves:    1065
 k-point ** :  -0.4000 0.4000 0.2000  plane waves:    1052
 k-point ** :  -0.3333 0.4000 0.2000  plane waves:    1061
 k-point ** :  -0.3333 0.4667 0.2000  plane waves:    1055
 k-point ** :  -0.2667 0.4667 0.2000  plane waves:    1059

 maximum and minimum number of plane-waves per node :      1073     1031

 maximum number of plane-waves:      1073
 maximum index in each direction: 
   IXMAX=    7   IYMAX=    7   IZMAX=    7
   IXMIN=   -7   IYMIN=   -7   IZMIN=   -7

 WARNING: aliasing errors must be expected set NGX to  30 to avoid them
 WARNING: aliasing errors must be expected set NGY to  30 to avoid them
 WARNING: aliasing errors must be expected set NGZ to  30 to avoid them
 aliasing errors are usually negligible using standard VASP settings
 and one can safely disregard these warnings

 serial   3D FFT for wavefunctions
 parallel 3D FFT for charge:
    minimum data exchange during FFTs selected (reduces bandwidth)


 total amount of memory used by VASP on root node    41722. kBytes
========================================================================

   base      :      30000. kBytes
   nonl-proj :       8390. kBytes
   fftplans  :        304. kBytes
   grid      :        903. kBytes
   one-center:          6. kBytes
   wavefun   :       2119. kBytes
 
     INWAV:  cpu time    0.0010: real time    0.0001
 Broyden mixing: mesh for mixing (old mesh)
   NGX = 15   NGY = 15   NGZ = 15
  (NGX  = 48   NGY  = 48   NGZ  = 48)
  gives a total of   3375 points

 initial charge density was supplied:
 charge density of overlapping atoms calculated
 number of electron       8.0000000 magnetization 
 keeping initial charge density in first step


--------------------------------------------------------------------------------------------------------


 Maximum index for augmentation-charges          757 (set IRDMAX)


--------------------------------------------------------------------------------------------------------


 First call to EWALD:  gamma=   0.512
 Maximum number of real-space cells 3x 3x 3
 Maximum number of reciprocal cells 3x 3x 3

 FEWALD executed in parallel
    FEWALD:  cpu time    0.0030: real time    0.0020


----------------------------------------- Iteration    1(   1)  ---------------------------------------


    POTLOK:  cpu time    0.0060: real time    0.0058
    SETDIJ:  cpu time    0.0010: real time    0.0017
     EDDAV:  cpu time    0.4309: real time    0.4302
       DOS:  cpu time    0.0010: real time    0.0008
    --------------------------------------------
      LOOP:  cpu time    0.4399: real time    0.4804

 eigenvalue-minimisations  :  3856
 total energy-change (2. order) :-0.2094979E+01  (-0.3158317E+03)
 number of electron       8.0000000 magnetization 
 augmentation part        8.0000000 magnetization 

 Free energy of the ion-electron system (eV)
  ---------------------------------------------------
  alpha Z        PSCENC =         3.23732084
  Ewald energy   TEWEN  =      -225.65453461
  -Hartree energ DENC   =       -11.58535014
  -exchange      EXHF   =         0.00000000
  -V(xc)+E(xc)   XCENC  =       -18.75122845
  PAW double counting   =        65.95520812      -30.76852678
  entropy T*S    EENTRO =        -0.00177128
  eigenvalues    EBANDS =         9.34138966
  atomic energy  EATOM  =       206.13251344
  Solvation  Ediel_sol  =         0.00000000
  ---------------------------------------------------
  free energy    TOTEN  =        -2.09497921 eV

  energy without entropy =       -2.09320793  energy(sigma->0) =       -2.09409357


--------------------------------------------------------------------------------------------------------




----------------------------------------- Iteration    1(   2)  ---------------------------------------


     EDDAV:  cpu time    0.6899: real time    0.6902
       DOS:  cpu time    0.0000: real time    0.0005
    --------------------------------------------
      LOOP:  cpu time    0.6899: real time    0.6970

 eigenvalue-minimisations  :  5632
 total energy-change (2. order) :-0.8853782E+01  (-0.8754967E+01)
 number of electron       8.0000000 magnetization 
 augmentation part        8.0000000 magnetization 

 Free energy of the ion-electron system (eV)
  ---------------------------------------------------
  alpha Z        PSCENC =         3.23732084
  Ewald energy   TEWEN  =      -225.65453461
  -Hartree energ DENC   =       -11.58535014
  -exchange      EXHF   =         0.00000000
  -V(xc)+E(xc)   XCENC  =       -18.75122845
  PAW double counting   =        65.95520812      -30.76852678
  entropy T*S    EENTRO =        -0.00000000
  eigenvalues    EBANDS =         0.48583672
  atomic energy  EATOM  =       206.13251344
  Solvation  Ediel_sol  =         0.00000000
  ---------------------------------------------------
  free energy    TOTEN  =       -10.94876087 eV

  energy without entropy =      -10.94876087  energy(sigma->0) =      -10.94876087


--------------------------------------------------------------------------------------------------------




----------------------------------------- Iteration    1(   3)  ---------------------------------------


     EDDAV:  cpu time    0.4959: real time    0.4960
       DOS:  cpu time    0.0000: real time    0.0005
    --------------------------------------------
      LOOP:  cpu time    0.4969: real time    0.4991

 eigenvalue-minimisations  :  4304
 total energy-change (2. order) :-0.5631044E-01  (-0.5631044E-01)
 number of electron       8.0000000 magnetization 
 augmentation part        8.0000000 magnetization 

 Free energy of the ion-electron system (eV)
  ---------------------------------------------------
  alpha Z        PSCENC =         3.23732084
  Ewald energy   TEWEN  =      -225.65453461
  -Hartree energ DENC   =       -11.58535014
  -exchange      EXHF   =         0.00000000
  -V(xc)+E(xc)   XCENC  =       -18.75122845
  PAW double counting   =        65.95520812      -30.76852678
  entropy T*S    EENTRO =        -0.00000000
  eigenvalues    EBANDS =         0.42952628
  atomic energy  EATOM  =       206.13251344
  Solvation  Ediel_sol  =         0.00000000
  ---------------------------------------------------
  free energy    TOTEN  =       -11.00507131 eV

  energy without entropy =      -11.00507131  energy(sigma->0) =      -11.00507131


--------------------------------------------------------------------------------------------------------




----------------------------------------- Iteration    1(   4)  ---------------------------------------


     EDDAV:  cpu time    0.9729: real time    0.9752
       DOS:  cpu time    0.0000: real time    0.0005
    --------------------------------------------
      LOOP:  cpu time    0.9739: real time    0.9946

 eigenvalue-minimisations  :  7104
 total energy-change (2. order) :-0.1585291E-03  (-0.1585291E-03)
 number of electron       8.0000000 magnetization 
 augmentation part        8.0000000 magnetization 

 Free energy of the ion-electron system (eV)
  ---------------------------------------------------
  alpha Z        PSCENC =         3.23732084
  Ewald energy   TEWEN  =      -225.65453461
  -Hartree energ DENC   =       -11.58535014
  -exchange      EXHF   =         0.00000000
  -V(xc)+E(xc)   XCENC  =       -18.75122845
  PAW double counting   =        65.95520812      -30.76852678
  entropy T*S    EENTRO =        -0.00000000
  eigenvalues    EBANDS =         0.42936775
  atomic energy  EATOM  =       206.13251344
  Solvation  Ediel_sol  =         0.00000000
  ---------------------------------------------------
  free energy    TOTEN  =       -11.00522984 eV

  energy without entropy =      -11.00522984  energy(sigma->0) =      -11.00522984


--------------------------------------------------------------------------------------------------------




----------------------------------------- Iteration    1(   5)  ---------------------------------------


     EDDAV:  cpu time    0.4959: real time    0.4956
       DOS:  cpu time    0.0000: real time    0.0005
    CHARGE:  cpu time    0.0250: real time    0.0254
    MIXING:  cpu time    0.0010: real time    0.0004
    --------------------------------------------
      LOOP:  cpu time    0.5229: real time    0.5247

 eigenvalue-minimisations  :  4256
 total energy-change (2. order) :-0.1587517E-07  (-0.1587554E-07)
 number of electron       8.0000000 magnetization 
 augmentation part       -0.4688497 magnetization 

 Broyden mixing:
  rms(total) = 0.29155E+00    rms(broyden)= 0.29155E+00
  rms(prec ) = 0.83672E+00
  weight for this iteration     100.00

 Free energy of the ion-electron system (eV)
  ---------------------------------------------------
  alpha Z        PSCENC =         3.23732084
  Ewald energy   TEWEN  =      -225.65453461
  -Hartree energ DENC   =       -11.58535014
  -exchange      EXHF   =         0.00000000
  -V(xc)+E(xc)   XCENC  =       -18.75122845
  PAW double counting   =        65.95520812      -30.76852678
  entropy T*S    EENTRO =        -0.00000000
  eigenvalues    EBANDS =         0.42936773
  atomic energy  EATOM  =       206.13251344
  Solvation  Ediel_sol  =         0.00000000
  ---------------------------------------------------
  free energy    TOTEN  =       -11.00522986 eV

  energy without entropy =      -11.00522986  energy(sigma->0) =      -11.00522986


--------------------------------------------------------------------------------------------------------




----------------------------------------- Iteration    1(   6)  ---------------------------------------


    POTLOK:  cpu time    0.0040: real time    0.0050
    SETDIJ:  cpu time    0.0020: real time    0.0015
     EDDAV:  cpu time    0.6869: real time    0.6875
       DOS:  cpu time    0.0010: real time    0.0005
    CHARGE:  cpu time    0.0250: real time    0.0253
    MIXING:  cpu time    0.0000: real time    0.0004
    --------------------------------------------
      LOOP:  cpu time    0.7199: real time    0.7287

 eigenvalue-minimisations  :  5408
 total energy-change (2. order) : 0.1089073E+00  (-0.7049125E-02)
 number of electron       8.0000000 magnetization 
 augmentation part       -0.4636851 magnetization 

 Broyden mixing:
  rms(total) = 0.17329E+00    rms(broyden)= 0.17329E+00
  rms(prec ) = 0.49488E+00
  weight for this iteration     100.00

 eigenvalues of (default mixing * dielectric matrix)
  average eigenvalue GAMMA=   2.4453
  2.4453

 Free energy of the ion-electron system (eV)
  ---------------------------------------------------
  alpha Z        PSCENC =         3.23732084
  Ewald energy   TEWEN  =      -225.65453461
  -Hartree energ DENC   =       -13.02038152
  -exchange      EXHF   =         0.00000000
  -V(xc)+E(xc)   XCENC  =       -18.52621526
  PAW double counting   =        69.43367540      -34.34305978
  entropy T*S    EENTRO =        -0.00000000
  eigenvalues    EBANDS =         1.84435893
  atomic energy  EATOM  =       206.13251344
  Solvation  Ediel_sol  =         0.00000000
  ---------------------------------------------------
  free energy    TOTEN  =       -10.89632255 eV

  energy without entropy =      -10.89632255  energy(sigma->0) =      -10.89632255


--------------------------------------------------------------------------------------------------------




----------------------------------------- Iteration    1(   7)  ---------------------------------------


    POTLOK:  cpu time    0.0050: real time    0.0050
    SETDIJ:  cpu time    0.0010: real time    0.0015
     EDDAV:  cpu time    0.7189: real time    0.7193
       DOS:  cpu time    0.0010: real time    0.0006
    CHARGE:  cpu time    0.0250: real time    0.0253
    MIXING:  cpu time    0.0000: real time    0.0003
    --------------------------------------------
      LOOP:  cpu time    0.7519: real time    0.7738

 eigenvalue-minimisations  :  5648
 total energy-change (2. order) : 0.5114507E-01  (-0.1328694E-01)
 number of electron       8.0000000 magnetization 
 augmentation part       -0.4575177 magnetization 

 Broyden mixing:
  rms(total) = 0.14422E-01    rms(broyden)= 0.14422E-01
  rms(prec ) = 0.37308E-01
  weight for this iteration     100.00

 eigenvalues of (default mixing * dielectric matrix)
  average eigenvalue GAMMA=   2.4721
  2.4721  2.4721

 Free energy of the ion-electron system (eV)
  ---------------------------------------------------
  alpha Z        PSCENC =         3.23732084
  Ewald energy   TEWEN  =      -225.65453461
  -Hartree energ DENC   =       -15.35404268
  -exchange      EXHF   =         0.00000000
  -V(xc)+E(xc)   XCENC  =       -18.15219765
  PAW double counting   =        73.97762918      -39.00921160
  entropy T*S    EENTRO =        -0.00000001
  eigenvalues    EBANDS =         3.97734561
  atomic energy  EATOM  =       206.13251344
  Solvation  Ediel_sol  =         0.00000000
  ---------------------------------------------------
  free energy    TOTEN  =       -10.84517748 eV

  energy without entropy =      -10.84517747  energy(sigma->0) =      -10.84517748


--------------------------------------------------------------------------------------------------------




----------------------------------------- Iteration    1(   8)  ---------------------------------------


    POTLOK:  cpu time    0.0050: real time    0.0050
    SETDIJ:  cpu time    0.0010: real time    0.0015
     EDDAV:  cpu time    0.5389: real time    0.5384
       DOS:  cpu time    0.0000: real time    0.0006
    CHARGE:  cpu time    0.0260: real time    0.0254
    MIXING:  cpu time    0.0000: real time    0.0003
    --------------------------------------------
      LOOP:  cpu time    0.5719: real time    0.5798

 eigenvalue-minimisations  :  4544
 total energy-change (2. order) :-0.1287295E-02  (-0.3088135E-03)
 number of electron       8.0000000 magnetization 
 augmentation part       -0.4580629 magnetization 

 Broyden mixing:
  rms(total) = 0.25661E-02    rms(broyden)= 0.25661E-02
  rms(prec ) = 0.81072E-02
  weight for this iteration     100.00

 eigenvalues of (default mixing * dielectric matrix)
  average eigenvalue GAMMA=   2.1148
  1.1993  2.2720  2.8732

 Free energy of the ion-electron system (eV)
  ---------------------------------------------------
  alpha Z        PSCENC =         3.23732084
  Ewald energy   TEWEN  =      -225.65453461
  -Hartree energ DENC   =       -15.33073629
  -exchange      EXHF   =         0.00000000
  -V(xc)+E(xc)   XCENC  =       -18.14495453
  PAW double counting   =        73.11602931      -38.12119534
  entropy T*S    EENTRO =        -0.00000000
  eigenvalues    EBANDS =         3.91909241
  atomic energy  EATOM  =       206.13251344
  Solvation  Ediel_sol  =         0.00000000
  ---------------------------------------------------
  free energy    TOTEN  =       -10.84646478 eV

  energy without entropy =      -10.84646477  energy(sigma->0) =      -10.84646477


--------------------------------------------------------------------------------------------------------




----------------------------------------- Iteration    1(   9)  ---------------------------------------


    POTLOK:  cpu time    0.0050: real time    0.0050
    SETDIJ:  cpu time    0.0010: real time    0.0015
     EDDAV:  cpu time    0.9239: real time    0.9243
       DOS:  cpu time    0.0000: real time    0.0006
    CHARGE:  cpu time    0.0250: real time    0.0253
    MIXING:  cpu time    0.0010: real time    0.0003
    --------------------------------------------
      LOOP:  cpu time    0.9569: real time    0.9597

 eigenvalue-minimisations  :  6848
 total energy-change (2. order) :-0.1045166E-03  (-0.9595515E-05)
 number of electron       8.0000000 magnetization 
 augmentation part       -0.4581194 magnetization 

 Broyden mixing:
  rms(total) = 0.12635E-02    rms(broyden)= 0.12635E-02
  rms(prec ) = 0.32459E-02
  weight for this iteration     100.00

 eigenvalues of (default mixing * dielectric matrix)
  average eigenvalue GAMMA=   2.1952
  0.9559  2.9780  2.4235  2.4235

 Free energy of the ion-electron system (eV)
  ---------------------------------------------------
  alpha Z        PSCENC =         3.23732084
  Ewald energy   TEWEN  =      -225.65453461
  -Hartree energ DENC   =       -15.36627429
  -exchange      EXHF   =         0.00000000
  -V(xc)+E(xc)   XCENC  =       -18.13835858
  PAW double counting   =        73.07065886      -38.07425102
  entropy T*S    EENTRO =        -0.00000000
  eigenvalues    EBANDS =         3.94635608
  atomic energy  EATOM  =       206.13251344
  Solvation  Ediel_sol  =         0.00000000
  ---------------------------------------------------
  free energy    TOTEN  =       -10.84656929 eV

  energy without entropy =      -10.84656929  energy(sigma->0) =      -10.84656929


--------------------------------------------------------------------------------------------------------




----------------------------------------- Iteration    1(  10)  ---------------------------------------


    POTLOK:  cpu time    0.0050: real time    0.0050
    SETDIJ:  cpu time    0.0010: real time    0.0015
     EDDAV:  cpu time    0.5659: real time    0.5713
       DOS:  cpu time    0.0000: real time    0.0006
    CHARGE:  cpu time    0.0250: real time    0.0253
    MIXING:  cpu time    0.0010: real time    0.0003
    --------------------------------------------
      LOOP:  cpu time    0.5989: real time    0.6121

 eigenvalue-minimisations  :  4688
 total energy-change (2. order) :-0.1682295E-04  (-0.2215313E-05)
 number of electron       8.0000000 magnetization 
 augmentation part       -0.4580422 magnetization 

 Broyden mixing:
  rms(total) = 0.21143E-03    rms(broyden)= 0.21143E-03
  rms(prec ) = 0.58614E-03
  weight for this iteration     100.00

 eigenvalues of (default mixing * dielectric matrix)
  average eigenvalue GAMMA=   2.0538
  3.2413  2.6531  2.1751  0.9638  1.2357

 Free energy of the ion-electron system (eV)
  ---------------------------------------------------
  alpha Z        PSCENC =         3.23732084
  Ewald energy   TEWEN  =      -225.65453461
  -Hartree energ DENC   =       -15.37812704
  -exchange      EXHF   =         0.00000000
  -V(xc)+E(xc)   XCENC  =       -18.13795008
  PAW double counting   =        73.10450040      -38.10943932
  entropy T*S    EENTRO =        -0.00000000
  eigenvalues    EBANDS =         3.95913027
  atomic energy  EATOM  =       206.13251344
  Solvation  Ediel_sol  =         0.00000000
  ---------------------------------------------------
  free energy    TOTEN  =       -10.84658612 eV

  energy without entropy =      -10.84658611  energy(sigma->0) =      -10.84658611


--------------------------------------------------------------------------------------------------------




----------------------------------------- Iteration    1(  11)  ---------------------------------------


    POTLOK:  cpu time    0.0050: real time    0.0050
    SETDIJ:  cpu time    0.0010: real time    0.0015
     EDDAV:  cpu time    0.8979: real time    0.8976
       DOS:  cpu time    0.0000: real time    0.0006
    --------------------------------------------
      LOOP:  cpu time    0.9049: real time    0.9076

 eigenvalue-minimisations  :  6672
 total energy-change (2. order) : 0.8211416E-06  (-0.9260627E-07)
 number of electron       8.0000000 magnetization 
 augmentation part       -0.4580422 magnetization 

 Free energy of the ion-electron system (eV)
  ---------------------------------------------------
  alpha Z        PSCENC =         3.23732084
  Ewald energy   TEWEN  =      -225.65453461
  -Hartree energ DENC   =       -15.37603360
  -exchange      EXHF   =         0.00000000
  -V(xc)+E(xc)   XCENC  =       -18.13808971
  PAW double counting   =        73.08692416      -38.09128836
  entropy T*S    EENTRO =        -0.00000000
  eigenvalues    EBANDS =         3.95660255
  atomic energy  EATOM  =       206.13251344
  Solvation  Ediel_sol  =         0.00000000
  ---------------------------------------------------
  free energy    TOTEN  =       -10.84658530 eV

  energy without entropy =      -10.84658529  energy(sigma->0) =      -10.84658529


--------------------------------------------------------------------------------------------------------




 average (electrostatic) potential at core
  the test charge radii are     0.9892
  (the norm of the test charge is              1.0000)
       1 -83.6717       2 -83.6717
 
 
 
 E-fermi :   5.7653     XC(G=0):  -9.2609     alpha+bet :-11.5327


 k-point     1 :       0.0000    0.0000    0.0000
  band No.  band energies     occupation 
      1      -6.2527      2.00000
      2       5.4473      1.99999
      3       5.4473      1.99999
      4       5.4473      1.99999
      5       7.9967      0.00000
      6       7.9967      0.00000
      7       7.9967      0.00000
      8       8.3877      0.00000
      9      13.1473      0.00000
     10      13.1473      0.00000
     11      13.2588      0.00000
     12      16.5727      0.00000
     13      16.5727      0.00000
     14      16.5727      0.00000
     15      20.6156      0.00000
     16      28.0996      0.00000

 k-point     2 :       0.0667    0.0000    0.0000
  band No.  band energies     occupation 
      1      -6.1962      2.00000
      2       4.8521      2.00000
      3       5.3560      2.00000
      4       5.3560      2.00000
      5       8.0036      0.00000
      6       8.1310      0.00000
      7       8.1310      0.00000
      8       8.8811      0.00000
      9      12.9685      0.00000
     10      12.9685      0.00000
     11      13.5037      0.00000
     12      16.3575      0.00000
     13      16.9363      0.00000
     14      16.9363      0.00000
     15      21.0039      0.00000
     16      27.4277      0.00000

 k-point     3 :       0.1333    0.0000    0.0000
  band No.  band energies     occupation 
      1      -6.0281      2.00000
      2       3.7085      2.00000
      3       5.1392      2.00000
      4       5.1392      2.00000
      5       7.8053      0.00000
      6       8.4494      0.00000
      7       8.4494      0.00000
      8       9.9847      0.00000
      9      12.6447      0.00000
     10      12.6447      0.00000
     11      14.1069      0.00000
     12      15.9900      0.00000
     13      17.8342      0.00000
     14      17.8342      0.00000
     15      21.9509      0.00000
     16      25.8876      0.00000

 k-point     4 :       0.2000    0.0000    0.0000
  band No.  band energies     occupation 
      1      -5.7523      2.00000
      2       2.4836      2.00000
      3       4.8886      2.00000
      4       4.8886      2.00000
      5       7.5405      0.00000
      6       8.7746      0.00000
      7       8.7746      0.00000
      8      11.1840      0.00000
      9      12.4947      0.00000
     10      12.4947      0.00000
     11      14.4616      0.00000
     12      16.2263      0.00000
     13      18.9936      0.00000
     14      18.9936      0.00000
     15      23.0065      0.00000
     16      24.1435      0.00000

 k-point     5 :       0.2667    0.0000    0.0000
  band No.  band energies     occupation 
      1      -5.3777      2.00000
      2       1.3030      2.00000
      3       4.6598      2.00000
      4       4.6598      2.00000
      5       7.2868      0.00000
      6       8.9477      0.00000
      7       8.9477      0.00000
      8      12.3359      0.00000
      9      12.7270      0.00000
     10      12.7270      0.00000
     11      14.2651      0.00000
     12      17.3891      0.00000
     13      20.0757      0.00000
     14      20.0757      0.00000
     15      22.6896      0.00000
     16      22.6897      0.00000

 k-point     6 :       0.3333    0.0000    0.0000
  band No.  band energies     occupation 
      1      -4.9242      2.00000
      2       0.2264      2.00000
      3       4.4782      2.00000
      4       4.4782      2.00000
      5       7.0799      0.00000
      6       8.9462      0.00000
      7       8.9462      0.00000
      8      13.1525      0.00000
      9      13.3772      0.00000
     10      13.3772      0.00000
     11      14.3220      0.00000
     12      18.7204      0.00000
     13      19.7916      0.00000
     14      19.7916      0.00000
     15      21.8419      0.00000
     16      22.8269      0.00000

 k-point     7 :       0.4000    0.0000    0.0000
  band No.  band energies     occupation 
      1      -4.4428      2.00000
      2      -0.6775      2.00000
      3       4.3542      2.00000
      4       4.3542      2.00000
      5       6.9363      0.00000
      6       8.8703      0.00000
      7       8.8703      0.00000
      8      13.2202      0.00000
      9      14.3433      0.00000
     10      14.3433      0.00000
     11      15.2106      0.00000
     12      18.4136      0.00000
     13      18.4136      0.00000
     14      19.0147      0.00000
     15      22.0527      0.00000
     16      24.2725      0.00000

 k-point     8 :       0.4667    0.0000    0.0000
  band No.  band energies     occupation 
      1      -4.0744      2.00000
      2      -1.2591      2.00000
      3       4.2917      2.00000
      4       4.2917      2.00000
      5       6.8632      0.00000
      6       8.8114      0.00000
      7       8.8114      0.00000
      8      13.1390      0.00000
      9      15.4926      0.00000
     10      15.4926      0.00000
     11      16.2495      0.00000
     12      17.0061      0.00000
     13      17.0061      0.00000
     14      18.1836      0.00000
     15      23.6633      0.00000
     16      25.7802      0.00000

 k-point     9 :       0.0667    0.0667    0.0000
  band No.  band energies     occupation 
      1      -6.1774      2.00000
      2       4.9514      2.00000
      3       5.1675      2.00000
      4       5.1675      2.00000
      5       7.8210      0.00000
      6       8.3693      0.00000
      7       8.3693      0.00000
      8       8.8617      0.00000
      9      12.6232      0.00000
     10      13.2311      0.00000
     11      13.5846      0.00000
     12      16.7048      0.00000
     13      16.7048      0.00000
     14      16.9338      0.00000
     15      21.1551      0.00000
     16      27.1048      0.00000

 k-point    10 :       0.1333    0.0667    0.0000
  band No.  band energies     occupation 
      1      -6.0463      2.00000
      2       4.0371      2.00000
      3       4.8995      2.00000
      4       5.0567      2.00000
      5       7.8160      0.00000
      6       8.3964      0.00000
      7       8.7571      0.00000
      8       9.6972      0.00000
      9      12.2166      0.00000
     10      13.1678      0.00000
     11      14.0870      0.00000
     12      16.3917      0.00000
     13      17.1808      0.00000
     14      17.7862      0.00000
     15      21.9487      0.00000
     16      25.7757      0.00000

 k-point    11 :       0.2000    0.0667    0.0000
  band No.  band energies     occupation 
      1      -5.8059      2.00000
      2       2.8644      2.00000
      3       4.6329      2.00000
      4       4.8435      2.00000
      5       7.8675      0.00000
      6       8.4065      0.00000
      7       9.1368      0.00000
      8      10.6176      0.00000
      9      12.1513      0.00000
     10      13.0544      0.00000
     11      14.6669      0.00000
     12      16.2344      0.00000
     13      18.1405      0.00000
     14      18.9769      0.00000
     15      23.0054      0.00000
     16      24.0302      0.00000

 k-point    12 :       0.2667    0.0667    0.0000
  band No.  band energies     occupation 
      1      -5.4630      2.00000
      2       1.6857      2.00000
      3       4.4110      2.00000
      4       4.5763      2.00000
      5       7.7052      0.00000
      6       8.6142      0.00000
      7       9.3520      0.00000
      8      11.1587      0.00000
      9      12.8128      0.00000
     10      13.2189      0.00000
     11      14.6402      0.00000
     12      17.0417      0.00000
     13      19.2410      0.00000
     14      20.2104      0.00000
     15      22.4140      0.00000
     16      22.8215      0.00000

 k-point    13 :       0.3333    0.0667    0.0000
  band No.  band energies     occupation 
      1      -5.0325      2.00000
      2       0.5820      2.00000
      3       4.2532      2.00000
      4       4.3199      2.00000
      5       7.5077      0.00000
      6       8.7211      0.00000
      7       9.3509      0.00000
      8      11.7314      0.00000
      9      13.7635      0.00000
     10      13.7873      0.00000
     11      14.4670      0.00000
     12      18.3139      0.00000
     13      19.4713      0.00000
     14      20.5232      0.00000
     15      21.9304      0.00000
     16      22.2610      0.00000

 k-point    14 :       0.4000    0.0667    0.0000
[...]
     16      23.0989      0.00000

 k-point   101 :       0.4000    0.2667    0.1333
  band No.  band energies     occupation 
      1      -4.7213      2.00000
      2       1.0627      2.00000
      3       2.7740      2.00000
      4       4.0554      2.00000
      5       8.1163      0.00000
      6       9.4576      0.00000
      7       9.7484      0.00000
      8      11.3497      0.00000
      9      13.5356      0.00000
     10      16.2446      0.00000
     11      16.6105      0.00000
     12      17.8402      0.00000
     13      19.3529      0.00000
     14      20.6142      0.00000
     15      21.3077      0.00000
     16      23.7569      0.00000

 k-point   102 :       0.4667    0.2667    0.1333
  band No.  band energies     occupation 
      1      -4.2644      2.00000
      2       0.2991      2.00000
      3       2.3797      2.00000
      4       3.7801      2.00000
      5       8.4363      0.00000
      6       9.4063      0.00000
      7       9.8894      0.00000
      8      11.7084      0.00000
      9      14.0492      0.00000
     10      15.8781      0.00000
     11      17.6595      0.00000
     12      17.9979      0.00000
     13      19.5147      0.00000
     14      20.6572      0.00000
     15      21.8408      0.00000
     16      23.8796      0.00000

 k-point   103 :      -0.4667    0.2667    0.1333
  band No.  band energies     occupation 
      1      -3.7719      2.00000
      2      -0.4644      2.00000
      3       2.1813      2.00000
      4       3.5439      2.00000
      5       8.5644      0.00000
      6       9.1129      0.00000
      7      10.7844      0.00000
      8      11.7908      0.00000
      9      14.6390      0.00000
     10      14.9841      0.00000
     11      17.5915      0.00000
     12      19.1064      0.00000
     13      19.3620      0.00000
     14      20.9803      0.00000
     15      23.1490      0.00000
     16      23.4443      0.00000

 k-point   104 :      -0.4000    0.2667    0.1333
  band No.  band energies     occupation 
      1      -3.3820      2.00000
      2      -1.0066      2.00000
      3       2.1011      2.00000
      4       3.4102      2.00000
      5       8.6787      0.00000
      6       8.8664      0.00000
      7      11.7626      0.00000
      8      11.9711      0.00000
      9      13.2931      0.00000
     10      16.0081      0.00000
     11      17.3089      0.00000
     12      18.2630      0.00000
     13      20.5345      0.00000
     14      21.8352      0.00000
     15      22.7337      0.00000
     16      24.0443      0.00000

 k-point   105 :       0.4667    0.3333    0.1333
  band No.  band energies     occupation 
      1      -4.0851      2.00000
      2       0.2109      2.00000
      3       2.4086      2.00000
      4       3.3084      2.00000
      5       7.8331      0.00000
      6       8.7838      0.00000
      7      10.5110      0.00000
      8      12.6657      0.00000
      9      14.8009      0.00000
     10      16.1884      0.00000
     11      17.6769      0.00000
     12      18.6876      0.00000
     13      19.4337      0.00000
     14      20.2773      0.00000
     15      21.6604      0.00000
     16      23.0748      0.00000

 k-point   106 :      -0.4667    0.3333    0.1333
  band No.  band energies     occupation 
      1      -3.5964      2.00000
      2      -0.4278      2.00000
      3       2.0394      2.00000
      4       3.0581      2.00000
      5       8.1548      0.00000
      6       9.3262      0.00000
      7      10.2365      0.00000
      8      13.0335      0.00000
      9      14.8205      0.00000
     10      15.4849      0.00000
     11      18.4208      0.00000
     12      19.0894      0.00000
     13      19.7161      0.00000
     14      20.3036      0.00000
     15      22.4771      0.00000
     16      23.3069      0.00000

 k-point   107 :      -0.4000    0.3333    0.1333
  band No.  band energies     occupation 
      1      -3.1422      2.00000
      2      -0.9860      2.00000
      3       1.7858      2.00000
      4       2.9427      2.00000
      5       8.2981      0.00000
      6       9.8619      0.00000
      7      10.4940      0.00000
      8      13.0781      0.00000
      9      13.4028      0.00000
     10      16.4806      0.00000
     11      17.5549      0.00000
     12      19.1011      0.00000
     13      20.6745      0.00000
     14      21.5294      0.00000
     15      22.8254      0.00000
     16      24.1021      0.00000

 k-point   108 :      -0.3333    0.3333    0.1333
  band No.  band energies     occupation 
      1      -2.9934      2.00000
      2      -1.1572      2.00000
      3       1.6438      2.00000
      4       2.9873      2.00000
      5       8.4820      0.00000
      6       9.6816      0.00000
      7      11.6557      0.00000
      8      12.0978      0.00000
      9      13.0611      0.00000
     10      16.0740      0.00000
     11      17.9565      0.00000
     12      19.0491      0.00000
     13      21.6279      0.00000
     14      22.0443      0.00000
     15      22.5697      0.00000
     16      23.1455      0.00000

 k-point   109 :      -0.2667    0.3333    0.1333
  band No.  band energies     occupation 
      1      -3.3112      2.00000
      2      -0.7816      2.00000
      3       1.6483      2.00000
      4       3.1719      2.00000
      5       8.7436      0.00000
      6       9.5011      0.00000
      7      10.7822      0.00000
      8      12.9134      0.00000
      9      13.1936      0.00000
     10      14.9691      0.00000
     11      18.7487      0.00000
     12      19.5060      0.00000
     13      20.6317      0.00000
     14      20.9886      0.00000
     15      22.4157      0.00000
     16      23.6735      0.00000

 k-point   110 :      -0.2000    0.3333    0.1333
  band No.  band energies     occupation 
      1      -3.7957      2.00000
      2      -0.2111      2.00000
      3       1.8703      2.00000
      4       3.4573      2.00000
      5       9.0692      0.00000
      6       9.1413      0.00000
      7      10.0049      0.00000
      8      12.5249      0.00000
      9      14.2218      0.00000
     10      14.6252      0.00000
     11      18.7870      0.00000
     12      19.3023      0.00000
     13      19.4530      0.00000
     14      20.5140      0.00000
     15      22.3826      0.00000
     16      23.5030      0.00000

 k-point   111 :      -0.4667    0.4000    0.1333
  band No.  band energies     occupation 
      1      -3.3347      2.00000
      2      -0.6789      2.00000
      3       2.2017      2.00000
      4       2.7175      2.00000
      5       7.6804      0.00000
      6       8.2208      0.00000
      7      11.4863      0.00000
      8      13.9906      0.00000
      9      15.0680      0.00000
     10      16.1060      0.00000
     11      18.3273      0.00000
     12      19.2040      0.00000
     13      19.7055      0.00000
     14      20.4476      0.00000
     15      22.1632      0.00000
     16      22.7154      0.00000

 k-point   112 :      -0.4000    0.4000    0.1333
  band No.  band energies     occupation 
      1      -2.8468      2.00000
      2      -1.1895      2.00000
      3       1.8388      2.00000
      4       2.5599      2.00000
      5       7.9732      0.00000
      6       8.9995      0.00000
      7      11.2089      0.00000
      8      13.5304      0.00000
      9      14.4074      0.00000
     10      16.7100      0.00000
     11      17.6793      0.00000
     12      19.8124      0.00000
     13      20.5691      0.00000
     14      20.9023      0.00000
     15      22.5791      0.00000
     16      23.4971      0.00000

 k-point   113 :      -0.3333    0.4000    0.1333
  band No.  band energies     occupation 
      1      -2.5761      2.00000
      2      -1.4527      2.00000
      3       1.5305      2.00000
      4       2.6303      2.00000
      5       8.1529      0.00000
      6      10.1512      0.00000
      7      11.0114      0.00000
      8      12.1461      0.00000
      9      14.3607      0.00000
     10      16.0947      0.00000
     11      18.2529      0.00000
     12      20.0090      0.00000
     13      20.7280      0.00000
     14      22.1120      0.00000
     15      22.6694      0.00000
     16      23.7278      0.00000

 k-point   114 :      -0.2667    0.4000    0.1333
  band No.  band energies     occupation 
      1      -2.8422      2.00000
      2      -1.1852      2.00000
      3       1.4345      2.00000
      4       2.8489      2.00000
      5       8.4104      0.00000
      6      10.4479      0.00000
      7      11.0283      0.00000
      8      11.7367      0.00000
      9      13.9328      0.00000
     10      15.2339      0.00000
     11      19.1500      0.00000
     12      20.1996      0.00000
     13      20.2366      0.00000
     14      21.7359      0.00000
     15      22.6186      0.00000
     16      23.6542      0.00000

 k-point   115 :      -0.4000    0.4667    0.1333
  band No.  band energies     occupation 
      1      -2.4931      2.00000
      2      -1.5935      2.00000
      3       2.1718      2.00000
      4       2.3379      2.00000
      5       7.6823      0.00000
      6       7.8572      0.00000
      7      12.5743      0.00000
      8      13.7536      0.00000
      9      15.4136      0.00000
     10      16.6348      0.00000
     11      17.8305      0.00000
     12      18.9314      0.00000
     13      20.5707      0.00000
     14      21.7705      0.00000
     15      21.9285      0.00000
     16      23.2913      0.00000

 k-point   116 :      -0.3333    0.4667    0.1333
  band No.  band energies     occupation 
      1      -2.1959      2.00000
      2      -1.8417      2.00000
      3       1.7745      2.00000
      4       2.3829      2.00000
      5       7.9109      0.00000
      6       8.8908      0.00000
      7      12.2433      0.00000
      8      12.3959      0.00000
      9      15.4701      0.00000
     10      16.1453      0.00000
     11      18.2621      0.00000
     12      19.0643      0.00000
     13      21.5411      0.00000
     14      22.2744      0.00000
     15      22.3882      0.00000
     16      22.5696      0.00000

 k-point   117 :      -0.4000    0.4000    0.2000
  band No.  band energies     occupation 
      1      -3.1089      2.00000
      2      -0.8979      2.00000
      3       1.7275      2.00000
      4       2.6946      2.00000
      5       8.9993      0.00000
      6       9.3965      0.00000
      7       9.9885      0.00000
      8      13.3202      0.00000
      9      13.9739      0.00000
     10      15.6975      0.00000
     11      18.7527      0.00000
     12      19.9016      0.00000
     13      20.0070      0.00000
     14      21.0417      0.00000
     15      21.9649      0.00000
     16      24.1116      0.00000

 k-point   118 :      -0.3333    0.4000    0.2000
  band No.  band energies     occupation 
      1      -2.6877      2.00000
      2      -1.3193      2.00000
      3       1.5899      2.00000
      4       2.4785      2.00000
      5       9.2682      0.00000
      6       9.5915      0.00000
      7      10.5286      0.00000
      8      11.8912      0.00000
      9      14.3764      0.00000
     10      16.4179      0.00000
     11      17.9653      0.00000
     12      19.8822      0.00000
     13      20.5884      0.00000
     14      22.3363      0.00000
     15      22.5813      0.00000
     16      23.9232      0.00000

 k-point   119 :      -0.3333    0.4667    0.2000
  band No.  band energies     occupation 
      1      -2.3679      2.00000
      2      -1.6183      2.00000
      3       1.8020      2.00000
      4       2.1228      2.00000
      5       8.9912      0.00000
      6       9.1313      0.00000
      7      10.9298      0.00000
      8      12.0642      0.00000
      9      15.4068      0.00000
     10      16.5145      0.00000
     11      18.0135      0.00000
     12      19.0675      0.00000
     13      21.3251      0.00000
     14      22.4027      0.00000
     15      22.5404      0.00000
     16      23.7096      0.00000

 k-point   120 :      -0.2667    0.4667    0.2000
  band No.  band energies     occupation 
      1      -2.2582      2.00000
      2      -1.7059      2.00000
      3       1.6514      2.00000
      4       2.1416      2.00000
      5       9.2414      0.00000
      6      10.1291      0.00000
      7      10.7752      0.00000
      8      10.8260      0.00000
      9      15.4288      0.00000
     10      16.3476      0.00000
     11      18.1564      0.00000
     12      19.1411      0.00000
     13      21.3565      0.00000
     14      22.2282      0.00000
     15      23.6365      0.00000
     16      23.7378      0.00000


--------------------------------------------------------------------------------------------------------


 soft charge-density along one line, spin component           1
         0         1         2         3         4         5         6         7         8         9
 total charge-density along one line
 
 pseudopotential strength for first ion, spin component:           1
 18.437  -0.001   0.000   0.000   0.000  -0.000  -0.000  -0.000
 -0.001   0.006  -0.000  -0.000  -0.000   0.000   0.000   0.000
  0.000  -0.000   4.181  -0.000  -0.000  -0.004   0.000   0.000
  0.000  -0.000  -0.000   4.181  -0.000   0.000  -0.004   0.000
  0.000  -0.000  -0.000  -0.000   4.181   0.000   0.000  -0.004
 -0.000   0.000  -0.004   0.000   0.000   0.005  -0.000  -0.000
 -0.000   0.000   0.000  -0.004   0.000  -0.000   0.005  -0.000
 -0.000   0.000   0.000   0.000  -0.004  -0.000  -0.000   0.005
 total augmentation occupancy for first ion, spin component:           1
  1.496  -0.758   0.000   0.000   0.000  -0.000  -0.000   0.000
 -0.758   0.747  -0.000  -0.000   0.000   0.000   0.000  -0.000
 -0.000   0.000   1.016   0.000   0.000  -0.547  -0.000  -0.000
  0.000   0.000   0.000   1.016  -0.000  -0.000  -0.547   0.000
  0.000   0.000   0.000  -0.000   1.016   0.000   0.000  -0.547
 -0.000   0.000  -0.547  -0.000   0.000   0.348  -0.000   0.000
 -0.000  -0.000  -0.000  -0.547  -0.000  -0.000   0.348  -0.000
 -0.000  -0.000   0.000   0.000  -0.547   0.000  -0.000   0.348


------------------------ aborting loop because EDIFF is reached ----------------------------------------


    CHARGE:  cpu time    0.0230: real time    0.0238
    FORLOC:  cpu time    0.0000: real time    0.0002
    FORNL :  cpu time    0.0340: real time    0.0332
    STRESS:  cpu time    0.4469: real time    0.4470
    FORCOR:  cpu time    0.0050: real time    0.0050
    FORHAR:  cpu time    0.0010: real time    0.0012
    MIXING:  cpu time    0.0010: real time    0.0003
    OFIELD:  cpu time    0.0000: real time    0.0000

  FORCE on cell =-STRESS in cart. coord.  units (eV):
  Direction    XX          YY          ZZ          XY          YZ          ZX
  --------------------------------------------------------------------------------------
  Alpha Z     3.29343     3.29343     3.29343
  Ewald     -75.65027   -75.65027   -75.65027     0.00000    -0.00000    -0.00000
  Hartree     5.05662     5.05662     5.05662     0.00000     0.00000     0.00000
  E(xc)     -25.24631   -25.24631   -25.24631    -0.00000    -0.00000    -0.00000
  Local     -29.50838   -29.50838   -29.50838     0.00001     0.00001     0.00001
  n-local    78.36148    79.88774    74.11464     2.20121    -1.30499     0.50386
  augment   -11.64914   -11.64914   -11.64914    -0.00001    -0.00001    -0.00001
  Kinetic    58.48109    55.76015    54.50691     3.58643    -0.67062     1.05156
  Fock        0.00000     0.00000     0.00000     0.00000     0.00000     0.00000
  -------------------------------------------------------------------------------------
  Total      -0.00005    -0.00005    -0.00005     0.00000     0.00000    -0.00000
  in kB      -0.00203    -0.00203    -0.00203     0.00000     0.00000    -0.00000
  external pressure =       -0.00 kB  Pullay stress =        0.00 kB


 VOLUME and BASIS-vectors are now :
 -----------------------------------------------------------------------------
  energy-cutoff  :      500.00
  volume of cell :       40.89
      direct lattice vectors                 reciprocal lattice vectors
     0.000000000  2.734294171  2.734294171    -0.182862548  0.182862548  0.182862548
     2.734294171  0.000000000  2.734294171     0.182862548 -0.182862548  0.182862548
     2.734294171  2.734294171  0.000000000     0.182862548  0.182862548 -0.182862548

  length of vectors
     3.866875900  3.866875900  3.866875900     0.316727224  0.316727224  0.316727224


 FORCES acting on ions
    electron-ion (+dipol)            ewald-force                    non-local-force                 convergence-correction
 -----------------------------------------------------------------------------------------------
   0.222E-06 0.222E-06 0.210E-06   0.749E-15 -.128E-14 -.161E-14   0.194E-15 0.212E-15 0.212E-15   0.214E-11 0.214E-11 0.214E-11
   -.222E-06 -.222E-06 -.210E-06   -.680E-15 0.574E-15 0.165E-14   -.180E-15 -.291E-15 -.121E-15   -.214E-11 -.214E-11 -.214E-11
 -----------------------------------------------------------------------------------------------
   0.320E-13 0.123E-12 0.111E-14   0.692E-16 -.709E-15 0.373E-16   0.139E-16 -.798E-16 0.902E-16   -.795E-16 -.815E-15 -.800E-15
 
 
 POSITION                                       TOTAL-FORCE (eV/Angst)
 -----------------------------------------------------------------------------------
      4.78501      4.78501      4.78501         0.000000     -0.000000     -0.000000
      0.68357      0.68357      0.68357        -0.000000      0.000000      0.000000
 -----------------------------------------------------------------------------------
    total drift:                                0.000000      0.000000      0.000000


--------------------------------------------------------------------------------------------------------



  FREE ENERGIE OF THE ION-ELECTRON SYSTEM (eV)
  ---------------------------------------------------
  free  energy   TOTEN  =       -10.84991208 eV

  energy  without entropy=      -10.84991207  energy(sigma->0) =      -10.84991208
 
 d Force = 0.0000000E+00[ 0.000E+00, 0.000E+00]  d Energy = 0.1236161E-06-0.124E-06
 d Force = 0.0000000E+00[ 0.000E+00, 0.000E+00]  d Ewald  =-0.5323328E-02 0.532E-02


--------------------------------------------------------------------------------------------------------


    POTLOK:  cpu time    0.0060: real time    0.0067


--------------------------------------------------------------------------------------------------------




--------------------------------------------------------------------------------------------------------


  
 reached required accuracy - stopping structural energy minimisation
 writing wavefunctions
     LOOP+:  cpu time    1.9987: real time    2.0563
    4ORBIT:  cpu time    0.0000: real time    0.0000

 total amount of memory used by VASP on root node    41722. kBytes
========================================================================

   base      :      30000. kBytes
   nonl-proj :       8390. kBytes
   fftplans  :        304. kBytes
   grid      :        903. kBytes
   one-center:          6. kBytes
   wavefun   :       2119. kBytes
 
  
  
 General timing and accounting informations for this job:
 ========================================================
  
                  Total CPU time used (sec):       19.176
                            User time (sec):       18.982
                          System time (sec):        0.194
                         Elapsed time (sec):       19.981
  
                   Maximum memory used (kb):       86576.
                   Average memory used (kb):           0.
  
                          Minor page faults:        22389
                          Major page faults:            0
                 Voluntary context switches:         3714
